 Entering Gaussian System, Link 0=g09
 Input=A7_property_B3LYP_def2-TZVP_solvent.com
 Output=A7_property_B3LYP_def2-TZVP_solvent.log
 Initial command:
 /home/scr/programs/g09/l1.exe "/home/scr/guest/Gau-17183.inp" -scrdir="/home/scr/guest/"
 Entering Link 1 = /home/scr/programs/g09/l1.exe PID=     17184.
  
 Copyright (c) 1988,1990,1992,1993,1995,1998,2003,2009,2013,
            Gaussian, Inc.  All Rights Reserved.
  
 This is part of the Gaussian(R) 09 program.  It is based on
 the Gaussian(R) 03 system (copyright 2003, Gaussian, Inc.),
 the Gaussian(R) 98 system (copyright 1998, Gaussian, Inc.),
 the Gaussian(R) 94 system (copyright 1995, Gaussian, Inc.),
 the Gaussian 92(TM) system (copyright 1992, Gaussian, Inc.),
 the Gaussian 90(TM) system (copyright 1990, Gaussian, Inc.),
 the Gaussian 88(TM) system (copyright 1988, Gaussian, Inc.),
 the Gaussian 86(TM) system (copyright 1986, Carnegie Mellon
 University), and the Gaussian 82(TM) system (copyright 1983,
 Carnegie Mellon University). Gaussian is a federally registered
 trademark of Gaussian, Inc.
  
 This software contains proprietary and confidential information,
 including trade secrets, belonging to Gaussian, Inc.
  
 This software is provided under written license and may be
 used, copied, transmitted, or stored only in accord with that
 written license.
  
 The following legend is applicable only to US Government
 contracts under FAR:
  
                    RESTRICTED RIGHTS LEGEND
  
 Use, reproduction and disclosure by the US Government is
 subject to restrictions as set forth in subparagraphs (a)
 and (c) of the Commercial Computer Software - Restricted
 Rights clause in FAR 52.227-19.
  
 Gaussian, Inc.
 340 Quinnipiac St., Bldg. 40, Wallingford CT 06492
  
  
 ---------------------------------------------------------------
 Warning -- This program may not be used in any manner that
 competes with the business of Gaussian, Inc. or will provide
 assistance to any competitor of Gaussian, Inc.  The licensee
 of this program is prohibited from giving any competitor of
 Gaussian, Inc. access to this program.  By using this program,
 the user acknowledges that Gaussian, Inc. is engaged in the
 business of creating and licensing software in the field of
 computational chemistry and represents and warrants to the
 licensee that it is not a competitor of Gaussian, Inc. and that
 it will not use this program in any manner prohibited above.
 ---------------------------------------------------------------
  

 Cite this work as:
 Gaussian 09, Revision D.01,
 M. J. Frisch, G. W. Trucks, H. B. Schlegel, G. E. Scuseria, 
 M. A. Robb, J. R. Cheeseman, G. Scalmani, V. Barone, B. Mennucci, 
 G. A. Petersson, H. Nakatsuji, M. Caricato, X. Li, H. P. Hratchian, 
 A. F. Izmaylov, J. Bloino, G. Zheng, J. L. Sonnenberg, M. Hada, 
 M. Ehara, K. Toyota, R. Fukuda, J. Hasegawa, M. Ishida, T. Nakajima, 
 Y. Honda, O. Kitao, H. Nakai, T. Vreven, J. A. Montgomery, Jr., 
 J. E. Peralta, F. Ogliaro, M. Bearpark, J. J. Heyd, E. Brothers, 
 K. N. Kudin, V. N. Staroverov, T. Keith, R. Kobayashi, J. Normand, 
 K. Raghavachari, A. Rendell, J. C. Burant, S. S. Iyengar, J. Tomasi, 
 M. Cossi, N. Rega, J. M. Millam, M. Klene, J. E. Knox, J. B. Cross, 
 V. Bakken, C. Adamo, J. Jaramillo, R. Gomperts, R. E. Stratmann, 
 O. Yazyev, A. J. Austin, R. Cammi, C. Pomelli, J. W. Ochterski, 
 R. L. Martin, K. Morokuma, V. G. Zakrzewski, G. A. Voth, 
 P. Salvador, J. J. Dannenberg, S. Dapprich, A. D. Daniels, 
 O. Farkas, J. B. Foresman, J. V. Ortiz, J. Cioslowski, 
 and D. J. Fox, Gaussian, Inc., Wallingford CT, 2013.
 
 ******************************************
 Gaussian 09:  EM64L-G09RevD.01 24-Apr-2013
                16-Sep-2019 
 ******************************************
 %mem=100Gb
 %nproc=32
 Will use up to   32 processors via shared memory.
 %chk=A7_property_B3LYP_def2-TZVP_solvent.chk
 ----------------------------------------------------------------------
 #B3LYP/gen gfinput scf=(maxcycle=1000,conver=4) Polar CPHF=RdFreq scrf
 =(solvent=THF) pseudo=read
 ----------------------------------------------------------------------
 1/38=1,83=1/1;
 2/12=2,17=6,18=5,40=1/2;
 3/5=7,11=2,16=1,17=8,24=10,25=1,30=1,70=2201,72=20,74=-5/1,2,3;
 4//1;
 5/5=2,6=4,7=1000,38=5,53=20,98=1/2;
 8/6=4,10=90,11=11/1;
 10/6=1,13=10,72=3/2;
 6/7=2,8=2,9=2,10=2,28=1/1;
 99/5=1,9=1/99;
 -----------
 propriedade
 -----------
 Symbolic Z-matrix:
 Charge =  0 Multiplicity = 1
 Ru                   -0.87953  -0.00492   0.25327 
 Cl                   -3.31738  -0.01706   1.01678 
 P                    -1.00276  -1.41024  -1.71702 
 P                    -1.02341   1.39112  -1.72913 
 P                    -0.55435  -1.41416   2.17857 
 P                    -0.61848   1.39591   2.19584 
 O                     8.51217   0.08199  -1.21606 
 O                     7.79639   0.06437  -3.25945 
 N                     7.60667   0.06929  -2.04561 
 N                     3.90636   0.0346   -2.09541 
 C                     1.04192   0.01599  -0.11256 
 C                     2.25298   0.02749  -0.38588 
 C                     3.60922   0.03888  -0.75956 
 C                     4.65032   0.05457   0.21593 
 C                     5.97137   0.06481  -0.18587 
 C                     6.24135   0.05952  -1.56387 
 C                     5.17492   0.04459  -2.47464 
 C                    -0.48157  -0.01106  -2.84496 
 C                    -0.88158  -0.02365   3.38588 
 C                     0.15604  -2.82212  -1.99075 
 C                     1.46452  -2.65437  -2.47285 
 C                     2.31526  -3.75819  -2.60369 
 C                     1.87836  -5.03679  -2.24721 
 C                     0.57996  -5.21084  -1.75481 
 C                    -0.2741   -4.11297  -1.62808 
 C                    -2.55356  -2.04232  -2.50437 
 C                    -2.50131  -2.61089  -3.79232 
 C                    -3.66428  -3.0768   -4.40728 
 C                    -4.89461  -2.98512  -3.74349 
 C                    -4.95358  -2.42079  -2.46773 
 C                    -3.78977  -1.94644  -1.84773 
 C                     0.11545   2.81575  -2.02691 
 C                     1.43066   2.65585  -2.49385 
 C                     2.26588   3.76873  -2.64619 
 C                     1.80705   5.04946  -2.3267 
 C                     0.50158   5.21646  -1.85128 
 C                    -0.33708   4.10937  -1.70377 
 C                    -2.58524   1.99299  -2.51784 
 C                    -2.55134   2.52371  -3.82247 
 C                    -3.72363   2.96836  -4.4353 
 C                    -4.94475   2.8936   -3.75251 
 C                    -4.98531   2.3678   -2.45972 
 C                    -3.81207   1.91449  -1.84166 
 C                     1.11779  -2.09018   2.56775 
 C                     1.80925  -1.8267    3.76026 
 C                     3.05755  -2.4124    4.00272 
 C                     3.62665  -3.27042   3.0584 
 C                     2.94498  -3.53741   1.86555 
 C                     1.70358  -2.94767   1.61902 
 C                    -1.64888  -2.81373   2.68382 
 C                    -2.57581  -3.3434    1.77477 
 C                    -3.38861  -4.42144   2.14175 
 C                    -3.28886  -4.97223   3.42234 
 C                    -2.36937  -4.44543   4.33705 
 C                    -1.54992  -3.37552   3.96921 
 C                    -1.79588   2.72344   2.70704 
 C                    -1.88506   3.13668   4.0476 
 C                    -2.75563   4.16691   4.41266 
 C                    -3.53927   4.80106   3.44181 
 C                    -3.45329   4.39656   2.10661 
 C                    -2.58984   3.35853   1.74171 
 C                     1.0109    2.15845   2.60825 
 C                     1.63121   2.94475   1.62161 
 C                     2.83482   3.60119   1.89088 
 C                     3.44147   3.4726    3.14498 
 C                     2.83593   2.68709   4.12981 
 C                     1.62643   2.03573   3.86424 
 H                     4.38707   0.05788   1.2738 
 H                     6.79391   0.07658   0.52942 
 H                     5.38811   0.04091  -3.54742 
 H                     0.6138   -0.00242  -2.90944 
 H                    -0.9125   -0.01901  -3.85625 
 H                    -1.96123  -0.05123   3.59132 
 H                    -0.33979  -0.02243   4.34129 
 H                     1.84805  -1.66767  -2.73563 
 H                     3.32889  -3.61013  -2.98451 
 H                     2.54621  -5.89557  -2.35183 
 H                     0.2278   -6.2056   -1.47048 
 H                    -1.28608  -4.26822  -1.24627 
 H                    -1.54713  -2.69661  -4.31878 
 H                    -3.61103  -3.51484  -5.40727 
 H                    -5.80439  -3.35327  -4.22478 
 H                    -5.9111   -2.34225  -1.94639 
 H                    -3.84501  -1.48492  -0.85903 
 H                     1.83155   1.66922  -2.72923 
 H                     3.28464   3.62616  -3.01524 
 H                     2.463     5.91521  -2.44774 
 H                     0.13136   6.21288  -1.59734 
 H                    -1.35595   4.26042  -1.33932 
 H                    -1.60437   2.59663  -4.36371 
 H                    -3.68508   3.37658  -5.44851 
 H                    -5.86187   3.24495  -4.23246 
 H                    -5.9356    2.3028   -1.9235 
 H                    -3.85231   1.48183  -0.83936 
 H                     1.38634  -1.16494   4.51728 
 H                     3.58299  -2.19559   4.93624 
 H                     4.60065  -3.72814   3.24905 
 H                     3.38473  -4.20165   1.11767 
 H                     1.19002  -3.15211   0.67758 
 H                    -2.67074  -2.89936   0.78425 
 H                    -4.1063   -4.82643   1.42385 
 H                    -3.92645  -5.81227   3.70957 
 H                    -2.28591  -4.87245   5.33969 
 H                    -0.82572  -2.98597   4.68908 
 H                    -1.27304   2.66029   4.8176 
 H                    -2.81963   4.47715   5.4587 
 H                    -4.21789   5.60865   3.72795 
 H                    -4.06685   4.88335   1.34436 
 H                    -2.54227   3.0282    0.70391 
 H                     1.17542   3.03974   0.63446 
 H                     3.3035    4.20884   1.11304 
 H                     4.38595   3.98169   3.35321 
 H                     3.30351   2.5791    5.11177 
 H                     1.17158   1.4337    4.65283 
 
 Using perturbation frequencies:    0.000000    0.042823
 Stoichiometry    C57H47ClN2O2P4Ru
 Framework group  C1[X(C57H47ClN2O2P4Ru)]
 Deg. of freedom   336
 Full point group                 C1      NOp   1
 Largest Abelian subgroup         C1      NOp   1
 Largest concise Abelian subgroup C1      NOp   1
                         Standard orientation:                         
 ---------------------------------------------------------------------
 Center     Atomic      Atomic             Coordinates (Angstroms)
 Number     Number       Type             X           Y           Z
 ---------------------------------------------------------------------
      1         44           0        0.879529    0.004921    0.253265
      2         17           0        3.317377    0.017055    1.016779
      3         15           0        1.002757    1.410242   -1.717022
      4         15           0        1.023410   -1.391118   -1.729130
      5         15           0        0.554348    1.414156    2.178573
      6         15           0        0.618483   -1.395908    2.195837
      7          8           0       -8.512169   -0.081986   -1.216055
      8          8           0       -7.796392   -0.064365   -3.259446
      9          7           0       -7.606667   -0.069293   -2.045606
     10          7           0       -3.906357   -0.034599   -2.095410
     11          6           0       -1.041916   -0.015994   -0.112564
     12          6           0       -2.252978   -0.027490   -0.385878
     13          6           0       -3.609222   -0.038875   -0.759564
     14          6           0       -4.650321   -0.054573    0.215928
     15          6           0       -5.971366   -0.064806   -0.185868
     16          6           0       -6.241353   -0.059517   -1.563874
     17          6           0       -5.174920   -0.044594   -2.474641
     18          6           0        0.481572    0.011057   -2.844959
     19          6           0        0.881577    0.023646    3.385876
     20          6           0       -0.156042    2.822117   -1.990750
     21          6           0       -1.464523    2.654367   -2.472851
     22          6           0       -2.315263    3.758187   -2.603692
     23          6           0       -1.878362    5.036794   -2.247211
     24          6           0       -0.579957    5.210840   -1.754808
     25          6           0        0.274101    4.112967   -1.628078
     26          6           0        2.553563    2.042318   -2.504366
     27          6           0        2.501305    2.610887   -3.792319
     28          6           0        3.664279    3.076796   -4.407275
     29          6           0        4.894606    2.985121   -3.743491
     30          6           0        4.953583    2.420787   -2.467734
     31          6           0        3.789766    1.946442   -1.847725
     32          6           0       -0.115445   -2.815746   -2.026906
     33          6           0       -1.430662   -2.655854   -2.493847
     34          6           0       -2.265876   -3.768729   -2.646191
     35          6           0       -1.807051   -5.049456   -2.326701
     36          6           0       -0.501576   -5.216464   -1.851278
     37          6           0        0.337075   -4.109371   -1.703770
     38          6           0        2.585239   -1.992991   -2.517835
     39          6           0        2.551339   -2.523705   -3.822466
     40          6           0        3.723631   -2.968356   -4.435304
     41          6           0        4.944750   -2.893598   -3.752505
     42          6           0        4.985313   -2.367796   -2.459716
     43          6           0        3.812066   -1.914486   -1.841656
     44          6           0       -1.117788    2.090182    2.567749
     45          6           0       -1.809246    1.826698    3.760262
     46          6           0       -3.057553    2.412401    4.002724
     47          6           0       -3.626645    3.270417    3.058403
     48          6           0       -2.944977    3.537407    1.865546
     49          6           0       -1.703580    2.947667    1.619023
     50          6           0        1.648878    2.813727    2.683816
     51          6           0        2.575808    3.343401    1.774768
     52          6           0        3.388614    4.421438    2.141747
     53          6           0        3.288858    4.972229    3.422338
     54          6           0        2.369370    4.445432    4.337052
     55          6           0        1.549921    3.375519    3.969207
     56          6           0        1.795880   -2.723439    2.707044
     57          6           0        1.885058   -3.136677    4.047602
     58          6           0        2.755628   -4.166914    4.412656
     59          6           0        3.539270   -4.801061    3.441807
     60          6           0        3.453288   -4.396565    2.106606
     61          6           0        2.589842   -3.358534    1.741709
     62          6           0       -1.010900   -2.158446    2.608254
     63          6           0       -1.631209   -2.944751    1.621607
     64          6           0       -2.834819   -3.601193    1.890882
     65          6           0       -3.441472   -3.472597    3.144977
     66          6           0       -2.835928   -2.687089    4.129814
     67          6           0       -1.626426   -2.035730    3.864243
     68          1           0       -4.387067   -0.057884    1.273802
     69          1           0       -6.793911   -0.076584    0.529422
     70          1           0       -5.388109   -0.040910   -3.547420
     71          1           0       -0.613801    0.002415   -2.909435
     72          1           0        0.912499    0.019011   -3.856252
     73          1           0        1.961234    0.051233    3.591318
     74          1           0        0.339789    0.022433    4.341290
     75          1           0       -1.848050    1.667672   -2.735634
     76          1           0       -3.328892    3.610133   -2.984505
     77          1           0       -2.546206    5.895570   -2.351833
     78          1           0       -0.227798    6.205600   -1.470475
     79          1           0        1.286075    4.268218   -1.246272
     80          1           0        1.547128    2.696614   -4.318780
     81          1           0        3.611032    3.514843   -5.407272
     82          1           0        5.804391    3.353274   -4.224784
     83          1           0        5.911101    2.342252   -1.946393
     84          1           0        3.845010    1.484916   -0.859028
     85          1           0       -1.831546   -1.669222   -2.729231
     86          1           0       -3.284641   -3.626159   -3.015244
     87          1           0       -2.463000   -5.915215   -2.447742
     88          1           0       -0.131358   -6.212875   -1.597342
     89          1           0        1.355946   -4.260423   -1.339324
     90          1           0        1.604368   -2.596625   -4.363709
     91          1           0        3.685076   -3.376582   -5.448507
     92          1           0        5.861871   -3.244949   -4.232457
     93          1           0        5.935601   -2.302802   -1.923502
     94          1           0        3.852314   -1.481832   -0.839361
     95          1           0       -1.386339    1.164942    4.517284
     96          1           0       -3.582986    2.195592    4.936244
     97          1           0       -4.600653    3.728135    3.249048
     98          1           0       -3.384728    4.201649    1.117671
     99          1           0       -1.190024    3.152109    0.677584
    100          1           0        2.670738    2.899361    0.784253
    101          1           0        4.106303    4.826434    1.423847
    102          1           0        3.926448    5.812267    3.709569
    103          1           0        2.285907    4.872448    5.339691
    104          1           0        0.825716    2.985971    4.689081
    105          1           0        1.273041   -2.660290    4.817601
    106          1           0        2.819633   -4.477145    5.458700
    107          1           0        4.217887   -5.608646    3.727954
    108          1           0        4.066847   -4.883349    1.344360
    109          1           0        2.542272   -3.028199    0.703914
    110          1           0       -1.175415   -3.039744    0.634455
    111          1           0       -3.303497   -4.208836    1.113036
    112          1           0       -4.385945   -3.981694    3.353212
    113          1           0       -3.303505   -2.579103    5.111775
    114          1           0       -1.171584   -1.433704    4.652828
 ---------------------------------------------------------------------
 Rotational constants (GHZ):      0.0357731      0.0297798      0.0285125
 General basis read from cards:  (5D, 7F)
 ======================================================================================================
                                       Pseudopotential Parameters
 ======================================================================================================
  Center     Atomic      Valence      Angular      Power
  Number     Number     Electrons     Momentum     of R      Exponent        Coefficient   SO-Coeffient
 ======================================================================================================
    1         44           16
                                      F and up 
                                                     2       11.3600000      -28.34061627    0.00000000
                                                     2        5.6800000       -4.94462923    0.00000000
                                      S - F
                                                     2       11.1052693      209.82297122    0.00000000
                                                     2        5.4147454       30.65472642    0.00000000
                                                     2       11.3600000       28.34061627    0.00000000
                                                     2        5.6800000        4.94462923    0.00000000
                                      P - F
                                                     2        9.7712707      146.33618228    0.00000000
                                                     2        5.0739908       24.12787723    0.00000000
                                                     2       11.3600000       28.34061627    0.00000000
                                                     2        5.6800000        4.94462923    0.00000000
                                      D - F
                                                     2        7.6714231       67.51589667    0.00000000
                                                     2        4.1365647        9.87010415    0.00000000
                                                     2       11.3600000       28.34061627    0.00000000
                                                     2        5.6800000        4.94462923    0.00000000
    2         17
                                   No pseudopotential on this center.
    3         15
                                   No pseudopotential on this center.
    4         15
                                   No pseudopotential on this center.
    5         15
                                   No pseudopotential on this center.
    6         15
                                   No pseudopotential on this center.
    7          8
                                   No pseudopotential on this center.
    8          8
                                   No pseudopotential on this center.
    9          7
                                   No pseudopotential on this center.
   10          7
                                   No pseudopotential on this center.
   11          6
                                   No pseudopotential on this center.
   12          6
                                   No pseudopotential on this center.
   13          6
                                   No pseudopotential on this center.
   14          6
                                   No pseudopotential on this center.
   15          6
                                   No pseudopotential on this center.
   16          6
                                   No pseudopotential on this center.
   17          6
                                   No pseudopotential on this center.
   18          6
                                   No pseudopotential on this center.
   19          6
                                   No pseudopotential on this center.
   20          6
                                   No pseudopotential on this center.
   21          6
                                   No pseudopotential on this center.
   22          6
                                   No pseudopotential on this center.
   23          6
                                   No pseudopotential on this center.
   24          6
                                   No pseudopotential on this center.
   25          6
                                   No pseudopotential on this center.
   26          6
                                   No pseudopotential on this center.
   27          6
                                   No pseudopotential on this center.
   28          6
                                   No pseudopotential on this center.
   29          6
                                   No pseudopotential on this center.
   30          6
                                   No pseudopotential on this center.
   31          6
                                   No pseudopotential on this center.
   32          6
                                   No pseudopotential on this center.
   33          6
                                   No pseudopotential on this center.
   34          6
                                   No pseudopotential on this center.
   35          6
                                   No pseudopotential on this center.
   36          6
                                   No pseudopotential on this center.
   37          6
                                   No pseudopotential on this center.
   38          6
                                   No pseudopotential on this center.
   39          6
                                   No pseudopotential on this center.
   40          6
                                   No pseudopotential on this center.
   41          6
                                   No pseudopotential on this center.
   42          6
                                   No pseudopotential on this center.
   43          6
                                   No pseudopotential on this center.
   44          6
                                   No pseudopotential on this center.
   45          6
                                   No pseudopotential on this center.
   46          6
                                   No pseudopotential on this center.
   47          6
                                   No pseudopotential on this center.
   48          6
                                   No pseudopotential on this center.
   49          6
                                   No pseudopotential on this center.
   50          6
                                   No pseudopotential on this center.
   51          6
                                   No pseudopotential on this center.
   52          6
                                   No pseudopotential on this center.
   53          6
                                   No pseudopotential on this center.
   54          6
                                   No pseudopotential on this center.
   55          6
                                   No pseudopotential on this center.
   56          6
                                   No pseudopotential on this center.
   57          6
                                   No pseudopotential on this center.
   58          6
                                   No pseudopotential on this center.
   59          6
                                   No pseudopotential on this center.
   60          6
                                   No pseudopotential on this center.
   61          6
                                   No pseudopotential on this center.
   62          6
                                   No pseudopotential on this center.
   63          6
                                   No pseudopotential on this center.
   64          6
                                   No pseudopotential on this center.
   65          6
                                   No pseudopotential on this center.
   66          6
                                   No pseudopotential on this center.
   67          6
                                   No pseudopotential on this center.
   68          1
                                   No pseudopotential on this center.
   69          1
                                   No pseudopotential on this center.
   70          1
                                   No pseudopotential on this center.
   71          1
                                   No pseudopotential on this center.
   72          1
                                   No pseudopotential on this center.
   73          1
                                   No pseudopotential on this center.
   74          1
                                   No pseudopotential on this center.
   75          1
                                   No pseudopotential on this center.
   76          1
                                   No pseudopotential on this center.
   77          1
                                   No pseudopotential on this center.
   78          1
                                   No pseudopotential on this center.
   79          1
                                   No pseudopotential on this center.
   80          1
                                   No pseudopotential on this center.
   81          1
                                   No pseudopotential on this center.
   82          1
                                   No pseudopotential on this center.
   83          1
                                   No pseudopotential on this center.
   84          1
                                   No pseudopotential on this center.
   85          1
                                   No pseudopotential on this center.
   86          1
                                   No pseudopotential on this center.
   87          1
                                   No pseudopotential on this center.
   88          1
                                   No pseudopotential on this center.
   89          1
                                   No pseudopotential on this center.
   90          1
                                   No pseudopotential on this center.
   91          1
                                   No pseudopotential on this center.
   92          1
                                   No pseudopotential on this center.
   93          1
                                   No pseudopotential on this center.
   94          1
                                   No pseudopotential on this center.
   95          1
                                   No pseudopotential on this center.
   96          1
                                   No pseudopotential on this center.
   97          1
                                   No pseudopotential on this center.
   98          1
                                   No pseudopotential on this center.
   99          1
                                   No pseudopotential on this center.
  100          1
                                   No pseudopotential on this center.
  101          1
                                   No pseudopotential on this center.
  102          1
                                   No pseudopotential on this center.
  103          1
                                   No pseudopotential on this center.
  104          1
                                   No pseudopotential on this center.
  105          1
                                   No pseudopotential on this center.
  106          1
                                   No pseudopotential on this center.
  107          1
                                   No pseudopotential on this center.
  108          1
                                   No pseudopotential on this center.
  109          1
                                   No pseudopotential on this center.
  110          1
                                   No pseudopotential on this center.
  111          1
                                   No pseudopotential on this center.
  112          1
                                   No pseudopotential on this center.
  113          1
                                   No pseudopotential on this center.
  114          1
                                   No pseudopotential on this center.
 ======================================================================================================
 AO basis set in the form of general basis input (Overlap normalization):
      1 0
 S   2 1.00       0.000000000000
      0.1600000000D+02 -0.1573764227D+01
      0.1391058169D+02  0.2558906234D+01
 S   1 1.00       0.000000000000
      0.4796797141D+01  0.1000000000D+01
 S   1 1.00       0.000000000000
      0.1155542559D+01  0.1000000000D+01
 S   1 1.00       0.000000000000
      0.5245574118D+00  0.1000000000D+01
 S   1 1.00       0.000000000000
      0.1073457265D+00  0.1000000000D+01
 S   1 1.00       0.000000000000
      0.3943276019D-01  0.1000000000D+01
 P   4 1.00       0.000000000000
      0.1118720867D+02  0.6141290715D-01
      0.6247768873D+01 -0.2622856795D+00
      0.1627947286D+01  0.5523344774D+00
      0.7932649354D+00  0.5793783366D+00
 P   1 1.00       0.000000000000
      0.3670727687D+00  0.1000000000D+01
 P   1 1.00       0.000000000000
      0.1150000000D+00  0.1000000000D+01
 P   1 1.00       0.000000000000
      0.3700000000D-01  0.1000000000D+01
 D   3 1.00       0.000000000000
      0.5734184662D+01 -0.5763190139D-01
      0.2248368629D+01  0.3562966266D+00
      0.9837697836D+00  0.7306439888D+00
 D   1 1.00       0.000000000000
      0.4037944558D+00  0.1000000000D+01
 D   1 1.00       0.000000000000
      0.1497861817D+00  0.1000000000D+01
 F   1 1.00       0.000000000000
      0.9431400000D+00  0.1000000000D+01
 ****
      2 0
 S   7 1.00       0.000000000000
      0.6950799094D+05  0.5145738965D-03
      0.1042615688D+05  0.3978134481D-02
      0.2373233406D+04  0.2045617867D-01
      0.6715642007D+03  0.8014810289D-01
      0.2184199979D+03  0.2345477032D+00
      0.7757224971D+02  0.4454336858D+00
      0.2888881528D+02  0.3546684250D+00
 S   3 1.00       0.000000000000
      0.1271052718D+03  0.1129368805D+00
      0.3933958296D+02  0.4837351421D+00
      0.7674067999D+01 -0.1229229739D+01
 S   2 1.00       0.000000000000
      0.3874562763D+01  0.6729682164D+00
      0.1838583257D+01  0.3495605141D+00
 S   1 1.00       0.000000000000
      0.5022905754D+00  0.1000000000D+01
 S   1 1.00       0.000000000000
      0.1796272342D+00  0.1000000000D+01
 P   5 1.00       0.000000000000
      0.6665042328D+03  0.3350250820D-02
      0.1576424169D+03  0.2676397041D-01
      0.5026252098D+02  0.1236268236D+00
      0.1853607811D+02  0.3584578792D+00
      0.7294053278D+01  0.6167729635D+00
 P   1 1.00       0.000000000000
      0.2943324900D+01  0.1000000000D+01
 P   1 1.00       0.000000000000
      0.1040497082D+01  0.1000000000D+01
 P   1 1.00       0.000000000000
      0.3845641508D+00  0.1000000000D+01
 P   1 1.00       0.000000000000
      0.1306964273D+00  0.1000000000D+01
 D   2 1.00       0.000000000000
      0.4610000000D+01  0.1826583505D+00
      0.1011000000D+01  0.9132917523D+00
 D   1 1.00       0.000000000000
      0.3390000000D+00  0.1000000000D+01
 F   1 1.00       0.000000000000
      0.7060000000D+00  0.1000000000D+01
 ****
      3 0
 S   7 1.00       0.000000000000
      0.5242699923D+05  0.5350794754D-03
      0.7863266055D+04  0.4136499449D-02
      0.1789522733D+04  0.2125650053D-01
      0.5062730017D+03  0.8303042596D-01
      0.1646069855D+03  0.2407611725D+00
      0.5839191872D+02  0.4491055900D+00
      0.2164366320D+02  0.3426250636D+00
 S   3 1.00       0.000000000000
      0.9901383762D+02  0.8820426703D-01
      0.3055043982D+02  0.3853170872D+00
      0.5453708766D+01 -0.1186531918D+01
 S   2 1.00       0.000000000000
      0.2650336256D+01  0.6822575618D+00
      0.1272668887D+01  0.3392684095D+00
 S   1 1.00       0.000000000000
      0.3164500520D+00  0.1000000000D+01
 S   1 1.00       0.000000000000
      0.1141746694D+00  0.1000000000D+01
 P   5 1.00       0.000000000000
      0.4722721925D+03  0.3644000722D-02
      0.1115888276D+03  0.2870101607D-01
      0.3544593642D+02  0.1297985651D+00
      0.1299077688D+02  0.3649504286D+00
      0.5048622166D+01  0.6075015660D+00
 P   1 1.00       0.000000000000
      0.1993404957D+01  0.1000000000D+01
 P   1 1.00       0.000000000000
      0.6652728443D+00  0.1000000000D+01
 P   1 1.00       0.000000000000
      0.2551683213D+00  0.1000000000D+01
 P   1 1.00       0.000000000000
      0.9035776225D-01  0.1000000000D+01
 D   2 1.00       0.000000000000
      0.3120000000D+01  0.1833871821D+00
      0.6480000000D+00  0.9169359104D+00
 D   1 1.00       0.000000000000
      0.2180000000D+00  0.1000000000D+01
 F   1 1.00       0.000000000000
      0.4520000000D+00  0.1000000000D+01
 ****
      4 0
 S   7 1.00       0.000000000000
      0.5242699923D+05  0.5350794754D-03
      0.7863266055D+04  0.4136499449D-02
      0.1789522733D+04  0.2125650053D-01
      0.5062730017D+03  0.8303042596D-01
      0.1646069855D+03  0.2407611725D+00
      0.5839191872D+02  0.4491055900D+00
      0.2164366320D+02  0.3426250636D+00
 S   3 1.00       0.000000000000
      0.9901383762D+02  0.8820426703D-01
      0.3055043982D+02  0.3853170872D+00
      0.5453708766D+01 -0.1186531918D+01
 S   2 1.00       0.000000000000
      0.2650336256D+01  0.6822575618D+00
      0.1272668887D+01  0.3392684095D+00
 S   1 1.00       0.000000000000
      0.3164500520D+00  0.1000000000D+01
 S   1 1.00       0.000000000000
      0.1141746694D+00  0.1000000000D+01
 P   5 1.00       0.000000000000
      0.4722721925D+03  0.3644000722D-02
      0.1115888276D+03  0.2870101607D-01
      0.3544593642D+02  0.1297985651D+00
      0.1299077688D+02  0.3649504286D+00
      0.5048622166D+01  0.6075015660D+00
 P   1 1.00       0.000000000000
      0.1993404957D+01  0.1000000000D+01
 P   1 1.00       0.000000000000
      0.6652728443D+00  0.1000000000D+01
 P   1 1.00       0.000000000000
      0.2551683213D+00  0.1000000000D+01
 P   1 1.00       0.000000000000
      0.9035776225D-01  0.1000000000D+01
 D   2 1.00       0.000000000000
      0.3120000000D+01  0.1833871821D+00
      0.6480000000D+00  0.9169359104D+00
 D   1 1.00       0.000000000000
      0.2180000000D+00  0.1000000000D+01
 F   1 1.00       0.000000000000
      0.4520000000D+00  0.1000000000D+01
 ****
      5 0
 S   7 1.00       0.000000000000
      0.5242699923D+05  0.5350794754D-03
      0.7863266055D+04  0.4136499449D-02
      0.1789522733D+04  0.2125650053D-01
      0.5062730017D+03  0.8303042596D-01
      0.1646069855D+03  0.2407611725D+00
      0.5839191872D+02  0.4491055900D+00
      0.2164366320D+02  0.3426250636D+00
 S   3 1.00       0.000000000000
      0.9901383762D+02  0.8820426703D-01
      0.3055043982D+02  0.3853170872D+00
      0.5453708766D+01 -0.1186531918D+01
 S   2 1.00       0.000000000000
      0.2650336256D+01  0.6822575618D+00
      0.1272668887D+01  0.3392684095D+00
 S   1 1.00       0.000000000000
      0.3164500520D+00  0.1000000000D+01
 S   1 1.00       0.000000000000
      0.1141746694D+00  0.1000000000D+01
 P   5 1.00       0.000000000000
      0.4722721925D+03  0.3644000722D-02
      0.1115888276D+03  0.2870101607D-01
      0.3544593642D+02  0.1297985651D+00
      0.1299077688D+02  0.3649504286D+00
      0.5048622166D+01  0.6075015660D+00
 P   1 1.00       0.000000000000
      0.1993404957D+01  0.1000000000D+01
 P   1 1.00       0.000000000000
      0.6652728443D+00  0.1000000000D+01
 P   1 1.00       0.000000000000
      0.2551683213D+00  0.1000000000D+01
 P   1 1.00       0.000000000000
      0.9035776225D-01  0.1000000000D+01
 D   2 1.00       0.000000000000
      0.3120000000D+01  0.1833871821D+00
      0.6480000000D+00  0.9169359104D+00
 D   1 1.00       0.000000000000
      0.2180000000D+00  0.1000000000D+01
 F   1 1.00       0.000000000000
      0.4520000000D+00  0.1000000000D+01
 ****
      6 0
 S   7 1.00       0.000000000000
      0.5242699923D+05  0.5350794754D-03
      0.7863266055D+04  0.4136499449D-02
      0.1789522733D+04  0.2125650053D-01
      0.5062730017D+03  0.8303042596D-01
      0.1646069855D+03  0.2407611725D+00
      0.5839191872D+02  0.4491055900D+00
      0.2164366320D+02  0.3426250636D+00
 S   3 1.00       0.000000000000
      0.9901383762D+02  0.8820426703D-01
      0.3055043982D+02  0.3853170872D+00
      0.5453708766D+01 -0.1186531918D+01
 S   2 1.00       0.000000000000
      0.2650336256D+01  0.6822575618D+00
      0.1272668887D+01  0.3392684095D+00
 S   1 1.00       0.000000000000
      0.3164500520D+00  0.1000000000D+01
 S   1 1.00       0.000000000000
      0.1141746694D+00  0.1000000000D+01
 P   5 1.00       0.000000000000
      0.4722721925D+03  0.3644000722D-02
      0.1115888276D+03  0.2870101607D-01
      0.3544593642D+02  0.1297985651D+00
      0.1299077688D+02  0.3649504286D+00
      0.5048622166D+01  0.6075015660D+00
 P   1 1.00       0.000000000000
      0.1993404957D+01  0.1000000000D+01
 P   1 1.00       0.000000000000
      0.6652728443D+00  0.1000000000D+01
 P   1 1.00       0.000000000000
      0.2551683213D+00  0.1000000000D+01
 P   1 1.00       0.000000000000
      0.9035776225D-01  0.1000000000D+01
 D   2 1.00       0.000000000000
      0.3120000000D+01  0.1833871821D+00
      0.6480000000D+00  0.9169359104D+00
 D   1 1.00       0.000000000000
      0.2180000000D+00  0.1000000000D+01
 F   1 1.00       0.000000000000
      0.4520000000D+00  0.1000000000D+01
 ****
      7 0
 S   6 1.00       0.000000000000
      0.2703238263D+05  0.5722733521D-03
      0.4052387139D+04  0.4435323349D-02
      0.9223272271D+03  0.2302010771D-01
      0.2612407099D+03  0.9282249067D-01
      0.8535464135D+02  0.2937850001D+00
      0.3103503525D+02  0.6740160450D+00
 S   2 1.00       0.000000000000
      0.1226086073D+02  0.6383993703D+00
      0.4998707601D+01  0.3953458713D+00
 S   1 1.00       0.000000000000
      0.1170310816D+01  0.1000000000D+01
 S   1 1.00       0.000000000000
      0.4647474099D+00  0.1000000000D+01
 S   1 1.00       0.000000000000
      0.1850453636D+00  0.1000000000D+01
 P   4 1.00       0.000000000000
      0.6327495480D+02  0.1201833222D-01
      0.1462704938D+02  0.8300542179D-01
      0.4450122346D+01  0.3199174393D+00
      0.1527579965D+01  0.7071554292D+00
 P   1 1.00       0.000000000000
      0.5293511794D+00  0.1000000000D+01
 P   1 1.00       0.000000000000
      0.1747842127D+00  0.1000000000D+01
 D   1 1.00       0.000000000000
      0.2314000000D+01  0.1000000000D+01
 D   1 1.00       0.000000000000
      0.6450000000D+00  0.1000000000D+01
 F   1 1.00       0.000000000000
      0.1428000000D+01  0.1000000000D+01
 ****
      8 0
 S   6 1.00       0.000000000000
      0.2703238263D+05  0.5722733521D-03
      0.4052387139D+04  0.4435323349D-02
      0.9223272271D+03  0.2302010771D-01
      0.2612407099D+03  0.9282249067D-01
      0.8535464135D+02  0.2937850001D+00
      0.3103503525D+02  0.6740160450D+00
 S   2 1.00       0.000000000000
      0.1226086073D+02  0.6383993703D+00
      0.4998707601D+01  0.3953458713D+00
 S   1 1.00       0.000000000000
      0.1170310816D+01  0.1000000000D+01
 S   1 1.00       0.000000000000
      0.4647474099D+00  0.1000000000D+01
 S   1 1.00       0.000000000000
      0.1850453636D+00  0.1000000000D+01
 P   4 1.00       0.000000000000
      0.6327495480D+02  0.1201833222D-01
      0.1462704938D+02  0.8300542179D-01
      0.4450122346D+01  0.3199174393D+00
      0.1527579965D+01  0.7071554292D+00
 P   1 1.00       0.000000000000
      0.5293511794D+00  0.1000000000D+01
 P   1 1.00       0.000000000000
      0.1747842127D+00  0.1000000000D+01
 D   1 1.00       0.000000000000
      0.2314000000D+01  0.1000000000D+01
 D   1 1.00       0.000000000000
      0.6450000000D+00  0.1000000000D+01
 F   1 1.00       0.000000000000
      0.1428000000D+01  0.1000000000D+01
 ****
      9 0
 S   6 1.00       0.000000000000
      0.1973080065D+05  0.5862640263D-03
      0.2957895875D+04  0.4542882059D-02
      0.6732213360D+03  0.2355841345D-01
      0.1906824949D+03  0.9470919329D-01
      0.6229544190D+02  0.2971978491D+00
      0.2265416118D+02  0.6691624690D+00
 S   2 1.00       0.000000000000
      0.8979147743D+01  0.6459668363D+00
      0.3686300237D+01  0.3870057439D+00
 S   1 1.00       0.000000000000
      0.8466007681D+00  0.1000000000D+01
 S   1 1.00       0.000000000000
      0.3364713377D+00  0.1000000000D+01
 S   1 1.00       0.000000000000
      0.1364765368D+00  0.1000000000D+01
 P   4 1.00       0.000000000000
      0.4920038051D+02  0.1144882510D-01
      0.1134679054D+02  0.7842233797D-01
      0.3427397241D+01  0.3081809474D+00
      0.1178552513D+01  0.7202719637D+00
 P   1 1.00       0.000000000000
      0.4164220497D+00  0.1000000000D+01
 P   1 1.00       0.000000000000
      0.1426082601D+00  0.1000000000D+01
 D   1 1.00       0.000000000000
      0.1654000000D+01  0.1000000000D+01
 D   1 1.00       0.000000000000
      0.4690000000D+00  0.1000000000D+01
 F   1 1.00       0.000000000000
      0.1093000000D+01  0.1000000000D+01
 ****
     10 0
 S   6 1.00       0.000000000000
      0.1973080065D+05  0.5862640263D-03
      0.2957895875D+04  0.4542882059D-02
      0.6732213360D+03  0.2355841345D-01
      0.1906824949D+03  0.9470919329D-01
      0.6229544190D+02  0.2971978491D+00
      0.2265416118D+02  0.6691624690D+00
 S   2 1.00       0.000000000000
      0.8979147743D+01  0.6459668363D+00
      0.3686300237D+01  0.3870057439D+00
 S   1 1.00       0.000000000000
      0.8466007681D+00  0.1000000000D+01
 S   1 1.00       0.000000000000
      0.3364713377D+00  0.1000000000D+01
 S   1 1.00       0.000000000000
      0.1364765368D+00  0.1000000000D+01
 P   4 1.00       0.000000000000
      0.4920038051D+02  0.1144882510D-01
      0.1134679054D+02  0.7842233797D-01
      0.3427397241D+01  0.3081809474D+00
      0.1178552513D+01  0.7202719637D+00
 P   1 1.00       0.000000000000
      0.4164220497D+00  0.1000000000D+01
 P   1 1.00       0.000000000000
      0.1426082601D+00  0.1000000000D+01
 D   1 1.00       0.000000000000
      0.1654000000D+01  0.1000000000D+01
 D   1 1.00       0.000000000000
      0.4690000000D+00  0.1000000000D+01
 F   1 1.00       0.000000000000
      0.1093000000D+01  0.1000000000D+01
 ****
     11 0
 S   6 1.00       0.000000000000
      0.1357534968D+05  0.6064550360D-03
      0.2035233368D+04  0.4697908888D-02
      0.4632256236D+03  0.2433247765D-01
      0.1312001960D+03  0.9739996831D-01
      0.4285301589D+02  0.3019558425D+00
      0.1558418577D+02  0.6623360914D+00
 S   2 1.00       0.000000000000
      0.6206713851D+01  0.6559530854D+00
      0.2576489653D+01  0.3758563329D+00
 S   1 1.00       0.000000000000
      0.5769633942D+00  0.1000000000D+01
 S   1 1.00       0.000000000000
      0.2297283136D+00  0.1000000000D+01
 S   1 1.00       0.000000000000
      0.9516444003D-01  0.1000000000D+01
 P   4 1.00       0.000000000000
      0.3469723224D+02  0.1132722000D-01
      0.7958262283D+01  0.7616965920D-01
      0.2378082688D+01  0.3019225220D+00
      0.8143320818D+00  0.7278502735D+00
 P   1 1.00       0.000000000000
      0.2888754725D+00  0.1000000000D+01
 P   1 1.00       0.000000000000
      0.1005682367D+00  0.1000000000D+01
 D   1 1.00       0.000000000000
      0.1097000000D+01  0.1000000000D+01
 D   1 1.00       0.000000000000
      0.3180000000D+00  0.1000000000D+01
 F   1 1.00       0.000000000000
      0.7610000000D+00  0.1000000000D+01
 ****
     12 0
 S   6 1.00       0.000000000000
      0.1357534968D+05  0.6064550360D-03
      0.2035233368D+04  0.4697908888D-02
      0.4632256236D+03  0.2433247765D-01
      0.1312001960D+03  0.9739996831D-01
      0.4285301589D+02  0.3019558425D+00
      0.1558418577D+02  0.6623360914D+00
 S   2 1.00       0.000000000000
      0.6206713851D+01  0.6559530854D+00
      0.2576489653D+01  0.3758563329D+00
 S   1 1.00       0.000000000000
      0.5769633942D+00  0.1000000000D+01
 S   1 1.00       0.000000000000
      0.2297283136D+00  0.1000000000D+01
 S   1 1.00       0.000000000000
      0.9516444003D-01  0.1000000000D+01
 P   4 1.00       0.000000000000
      0.3469723224D+02  0.1132722000D-01
      0.7958262283D+01  0.7616965920D-01
      0.2378082688D+01  0.3019225220D+00
      0.8143320818D+00  0.7278502735D+00
 P   1 1.00       0.000000000000
      0.2888754725D+00  0.1000000000D+01
 P   1 1.00       0.000000000000
      0.1005682367D+00  0.1000000000D+01
 D   1 1.00       0.000000000000
      0.1097000000D+01  0.1000000000D+01
 D   1 1.00       0.000000000000
      0.3180000000D+00  0.1000000000D+01
 F   1 1.00       0.000000000000
      0.7610000000D+00  0.1000000000D+01
 ****
     13 0
 S   6 1.00       0.000000000000
      0.1357534968D+05  0.6064550360D-03
      0.2035233368D+04  0.4697908888D-02
      0.4632256236D+03  0.2433247765D-01
      0.1312001960D+03  0.9739996831D-01
      0.4285301589D+02  0.3019558425D+00
      0.1558418577D+02  0.6623360914D+00
 S   2 1.00       0.000000000000
      0.6206713851D+01  0.6559530854D+00
      0.2576489653D+01  0.3758563329D+00
 S   1 1.00       0.000000000000
      0.5769633942D+00  0.1000000000D+01
 S   1 1.00       0.000000000000
      0.2297283136D+00  0.1000000000D+01
 S   1 1.00       0.000000000000
      0.9516444003D-01  0.1000000000D+01
 P   4 1.00       0.000000000000
      0.3469723224D+02  0.1132722000D-01
      0.7958262283D+01  0.7616965920D-01
      0.2378082688D+01  0.3019225220D+00
      0.8143320818D+00  0.7278502735D+00
 P   1 1.00       0.000000000000
      0.2888754725D+00  0.1000000000D+01
 P   1 1.00       0.000000000000
      0.1005682367D+00  0.1000000000D+01
 D   1 1.00       0.000000000000
      0.1097000000D+01  0.1000000000D+01
 D   1 1.00       0.000000000000
      0.3180000000D+00  0.1000000000D+01
 F   1 1.00       0.000000000000
      0.7610000000D+00  0.1000000000D+01
 ****
     14 0
 S   6 1.00       0.000000000000
      0.1357534968D+05  0.6064550360D-03
      0.2035233368D+04  0.4697908888D-02
      0.4632256236D+03  0.2433247765D-01
      0.1312001960D+03  0.9739996831D-01
      0.4285301589D+02  0.3019558425D+00
      0.1558418577D+02  0.6623360914D+00
 S   2 1.00       0.000000000000
      0.6206713851D+01  0.6559530854D+00
      0.2576489653D+01  0.3758563329D+00
 S   1 1.00       0.000000000000
      0.5769633942D+00  0.1000000000D+01
 S   1 1.00       0.000000000000
      0.2297283136D+00  0.1000000000D+01
 S   1 1.00       0.000000000000
      0.9516444003D-01  0.1000000000D+01
 P   4 1.00       0.000000000000
      0.3469723224D+02  0.1132722000D-01
      0.7958262283D+01  0.7616965920D-01
      0.2378082688D+01  0.3019225220D+00
      0.8143320818D+00  0.7278502735D+00
 P   1 1.00       0.000000000000
      0.2888754725D+00  0.1000000000D+01
 P   1 1.00       0.000000000000
      0.1005682367D+00  0.1000000000D+01
 D   1 1.00       0.000000000000
      0.1097000000D+01  0.1000000000D+01
 D   1 1.00       0.000000000000
      0.3180000000D+00  0.1000000000D+01
 F   1 1.00       0.000000000000
      0.7610000000D+00  0.1000000000D+01
 ****
     15 0
 S   6 1.00       0.000000000000
      0.1357534968D+05  0.6064550360D-03
      0.2035233368D+04  0.4697908888D-02
      0.4632256236D+03  0.2433247765D-01
      0.1312001960D+03  0.9739996831D-01
      0.4285301589D+02  0.3019558425D+00
      0.1558418577D+02  0.6623360914D+00
 S   2 1.00       0.000000000000
      0.6206713851D+01  0.6559530854D+00
      0.2576489653D+01  0.3758563329D+00
 S   1 1.00       0.000000000000
      0.5769633942D+00  0.1000000000D+01
 S   1 1.00       0.000000000000
      0.2297283136D+00  0.1000000000D+01
 S   1 1.00       0.000000000000
      0.9516444003D-01  0.1000000000D+01
 P   4 1.00       0.000000000000
      0.3469723224D+02  0.1132722000D-01
      0.7958262283D+01  0.7616965920D-01
      0.2378082688D+01  0.3019225220D+00
      0.8143320818D+00  0.7278502735D+00
 P   1 1.00       0.000000000000
      0.2888754725D+00  0.1000000000D+01
 P   1 1.00       0.000000000000
      0.1005682367D+00  0.1000000000D+01
 D   1 1.00       0.000000000000
      0.1097000000D+01  0.1000000000D+01
 D   1 1.00       0.000000000000
      0.3180000000D+00  0.1000000000D+01
 F   1 1.00       0.000000000000
      0.7610000000D+00  0.1000000000D+01
 ****
     16 0
 S   6 1.00       0.000000000000
      0.1357534968D+05  0.6064550360D-03
      0.2035233368D+04  0.4697908888D-02
      0.4632256236D+03  0.2433247765D-01
      0.1312001960D+03  0.9739996831D-01
      0.4285301589D+02  0.3019558425D+00
      0.1558418577D+02  0.6623360914D+00
 S   2 1.00       0.000000000000
      0.6206713851D+01  0.6559530854D+00
      0.2576489653D+01  0.3758563329D+00
 S   1 1.00       0.000000000000
      0.5769633942D+00  0.1000000000D+01
 S   1 1.00       0.000000000000
      0.2297283136D+00  0.1000000000D+01
 S   1 1.00       0.000000000000
      0.9516444003D-01  0.1000000000D+01
 P   4 1.00       0.000000000000
      0.3469723224D+02  0.1132722000D-01
      0.7958262283D+01  0.7616965920D-01
      0.2378082688D+01  0.3019225220D+00
      0.8143320818D+00  0.7278502735D+00
 P   1 1.00       0.000000000000
      0.2888754725D+00  0.1000000000D+01
 P   1 1.00       0.000000000000
      0.1005682367D+00  0.1000000000D+01
 D   1 1.00       0.000000000000
      0.1097000000D+01  0.1000000000D+01
 D   1 1.00       0.000000000000
      0.3180000000D+00  0.1000000000D+01
 F   1 1.00       0.000000000000
      0.7610000000D+00  0.1000000000D+01
 ****
     17 0
 S   6 1.00       0.000000000000
      0.1357534968D+05  0.6064550360D-03
      0.2035233368D+04  0.4697908888D-02
      0.4632256236D+03  0.2433247765D-01
      0.1312001960D+03  0.9739996831D-01
      0.4285301589D+02  0.3019558425D+00
      0.1558418577D+02  0.6623360914D+00
 S   2 1.00       0.000000000000
      0.6206713851D+01  0.6559530854D+00
      0.2576489653D+01  0.3758563329D+00
 S   1 1.00       0.000000000000
      0.5769633942D+00  0.1000000000D+01
 S   1 1.00       0.000000000000
      0.2297283136D+00  0.1000000000D+01
 S   1 1.00       0.000000000000
      0.9516444003D-01  0.1000000000D+01
 P   4 1.00       0.000000000000
      0.3469723224D+02  0.1132722000D-01
      0.7958262283D+01  0.7616965920D-01
      0.2378082688D+01  0.3019225220D+00
      0.8143320818D+00  0.7278502735D+00
 P   1 1.00       0.000000000000
      0.2888754725D+00  0.1000000000D+01
 P   1 1.00       0.000000000000
      0.1005682367D+00  0.1000000000D+01
 D   1 1.00       0.000000000000
      0.1097000000D+01  0.1000000000D+01
 D   1 1.00       0.000000000000
      0.3180000000D+00  0.1000000000D+01
 F   1 1.00       0.000000000000
      0.7610000000D+00  0.1000000000D+01
 ****
     18 0
 S   6 1.00       0.000000000000
      0.1357534968D+05  0.6064550360D-03
      0.2035233368D+04  0.4697908888D-02
      0.4632256236D+03  0.2433247765D-01
      0.1312001960D+03  0.9739996831D-01
      0.4285301589D+02  0.3019558425D+00
      0.1558418577D+02  0.6623360914D+00
 S   2 1.00       0.000000000000
      0.6206713851D+01  0.6559530854D+00
      0.2576489653D+01  0.3758563329D+00
 S   1 1.00       0.000000000000
      0.5769633942D+00  0.1000000000D+01
 S   1 1.00       0.000000000000
      0.2297283136D+00  0.1000000000D+01
 S   1 1.00       0.000000000000
      0.9516444003D-01  0.1000000000D+01
 P   4 1.00       0.000000000000
      0.3469723224D+02  0.1132722000D-01
      0.7958262283D+01  0.7616965920D-01
      0.2378082688D+01  0.3019225220D+00
      0.8143320818D+00  0.7278502735D+00
 P   1 1.00       0.000000000000
      0.2888754725D+00  0.1000000000D+01
 P   1 1.00       0.000000000000
      0.1005682367D+00  0.1000000000D+01
 D   1 1.00       0.000000000000
      0.1097000000D+01  0.1000000000D+01
 D   1 1.00       0.000000000000
      0.3180000000D+00  0.1000000000D+01
 F   1 1.00       0.000000000000
      0.7610000000D+00  0.1000000000D+01
 ****
     19 0
 S   6 1.00       0.000000000000
      0.1357534968D+05  0.6064550360D-03
      0.2035233368D+04  0.4697908888D-02
      0.4632256236D+03  0.2433247765D-01
      0.1312001960D+03  0.9739996831D-01
      0.4285301589D+02  0.3019558425D+00
      0.1558418577D+02  0.6623360914D+00
 S   2 1.00       0.000000000000
      0.6206713851D+01  0.6559530854D+00
      0.2576489653D+01  0.3758563329D+00
 S   1 1.00       0.000000000000
      0.5769633942D+00  0.1000000000D+01
 S   1 1.00       0.000000000000
      0.2297283136D+00  0.1000000000D+01
 S   1 1.00       0.000000000000
      0.9516444003D-01  0.1000000000D+01
 P   4 1.00       0.000000000000
      0.3469723224D+02  0.1132722000D-01
      0.7958262283D+01  0.7616965920D-01
      0.2378082688D+01  0.3019225220D+00
      0.8143320818D+00  0.7278502735D+00
 P   1 1.00       0.000000000000
      0.2888754725D+00  0.1000000000D+01
 P   1 1.00       0.000000000000
      0.1005682367D+00  0.1000000000D+01
 D   1 1.00       0.000000000000
      0.1097000000D+01  0.1000000000D+01
 D   1 1.00       0.000000000000
      0.3180000000D+00  0.1000000000D+01
 F   1 1.00       0.000000000000
      0.7610000000D+00  0.1000000000D+01
 ****
     20 0
 S   6 1.00       0.000000000000
      0.1357534968D+05  0.6064550360D-03
      0.2035233368D+04  0.4697908888D-02
      0.4632256236D+03  0.2433247765D-01
      0.1312001960D+03  0.9739996831D-01
      0.4285301589D+02  0.3019558425D+00
      0.1558418577D+02  0.6623360914D+00
 S   2 1.00       0.000000000000
      0.6206713851D+01  0.6559530854D+00
      0.2576489653D+01  0.3758563329D+00
 S   1 1.00       0.000000000000
      0.5769633942D+00  0.1000000000D+01
 S   1 1.00       0.000000000000
      0.2297283136D+00  0.1000000000D+01
 S   1 1.00       0.000000000000
      0.9516444003D-01  0.1000000000D+01
 P   4 1.00       0.000000000000
      0.3469723224D+02  0.1132722000D-01
      0.7958262283D+01  0.7616965920D-01
      0.2378082688D+01  0.3019225220D+00
      0.8143320818D+00  0.7278502735D+00
 P   1 1.00       0.000000000000
      0.2888754725D+00  0.1000000000D+01
 P   1 1.00       0.000000000000
      0.1005682367D+00  0.1000000000D+01
 D   1 1.00       0.000000000000
      0.1097000000D+01  0.1000000000D+01
 D   1 1.00       0.000000000000
      0.3180000000D+00  0.1000000000D+01
 F   1 1.00       0.000000000000
      0.7610000000D+00  0.1000000000D+01
 ****
     21 0
 S   6 1.00       0.000000000000
      0.1357534968D+05  0.6064550360D-03
      0.2035233368D+04  0.4697908888D-02
      0.4632256236D+03  0.2433247765D-01
      0.1312001960D+03  0.9739996831D-01
      0.4285301589D+02  0.3019558425D+00
      0.1558418577D+02  0.6623360914D+00
 S   2 1.00       0.000000000000
      0.6206713851D+01  0.6559530854D+00
      0.2576489653D+01  0.3758563329D+00
 S   1 1.00       0.000000000000
      0.5769633942D+00  0.1000000000D+01
 S   1 1.00       0.000000000000
      0.2297283136D+00  0.1000000000D+01
 S   1 1.00       0.000000000000
      0.9516444003D-01  0.1000000000D+01
 P   4 1.00       0.000000000000
      0.3469723224D+02  0.1132722000D-01
      0.7958262283D+01  0.7616965920D-01
      0.2378082688D+01  0.3019225220D+00
      0.8143320818D+00  0.7278502735D+00
 P   1 1.00       0.000000000000
      0.2888754725D+00  0.1000000000D+01
 P   1 1.00       0.000000000000
      0.1005682367D+00  0.1000000000D+01
 D   1 1.00       0.000000000000
      0.1097000000D+01  0.1000000000D+01
 D   1 1.00       0.000000000000
      0.3180000000D+00  0.1000000000D+01
 F   1 1.00       0.000000000000
      0.7610000000D+00  0.1000000000D+01
 ****
     22 0
 S   6 1.00       0.000000000000
      0.1357534968D+05  0.6064550360D-03
      0.2035233368D+04  0.4697908888D-02
      0.4632256236D+03  0.2433247765D-01
      0.1312001960D+03  0.9739996831D-01
      0.4285301589D+02  0.3019558425D+00
      0.1558418577D+02  0.6623360914D+00
 S   2 1.00       0.000000000000
      0.6206713851D+01  0.6559530854D+00
      0.2576489653D+01  0.3758563329D+00
 S   1 1.00       0.000000000000
      0.5769633942D+00  0.1000000000D+01
 S   1 1.00       0.000000000000
      0.2297283136D+00  0.1000000000D+01
 S   1 1.00       0.000000000000
      0.9516444003D-01  0.1000000000D+01
 P   4 1.00       0.000000000000
      0.3469723224D+02  0.1132722000D-01
      0.7958262283D+01  0.7616965920D-01
      0.2378082688D+01  0.3019225220D+00
      0.8143320818D+00  0.7278502735D+00
 P   1 1.00       0.000000000000
      0.2888754725D+00  0.1000000000D+01
 P   1 1.00       0.000000000000
      0.1005682367D+00  0.1000000000D+01
 D   1 1.00       0.000000000000
      0.1097000000D+01  0.1000000000D+01
 D   1 1.00       0.000000000000
      0.3180000000D+00  0.1000000000D+01
 F   1 1.00       0.000000000000
      0.7610000000D+00  0.1000000000D+01
 ****
     23 0
 S   6 1.00       0.000000000000
      0.1357534968D+05  0.6064550360D-03
      0.2035233368D+04  0.4697908888D-02
      0.4632256236D+03  0.2433247765D-01
      0.1312001960D+03  0.9739996831D-01
      0.4285301589D+02  0.3019558425D+00
      0.1558418577D+02  0.6623360914D+00
 S   2 1.00       0.000000000000
      0.6206713851D+01  0.6559530854D+00
      0.2576489653D+01  0.3758563329D+00
 S   1 1.00       0.000000000000
      0.5769633942D+00  0.1000000000D+01
 S   1 1.00       0.000000000000
      0.2297283136D+00  0.1000000000D+01
 S   1 1.00       0.000000000000
      0.9516444003D-01  0.1000000000D+01
 P   4 1.00       0.000000000000
      0.3469723224D+02  0.1132722000D-01
      0.7958262283D+01  0.7616965920D-01
      0.2378082688D+01  0.3019225220D+00
      0.8143320818D+00  0.7278502735D+00
 P   1 1.00       0.000000000000
      0.2888754725D+00  0.1000000000D+01
 P   1 1.00       0.000000000000
      0.1005682367D+00  0.1000000000D+01
 D   1 1.00       0.000000000000
      0.1097000000D+01  0.1000000000D+01
 D   1 1.00       0.000000000000
      0.3180000000D+00  0.1000000000D+01
 F   1 1.00       0.000000000000
      0.7610000000D+00  0.1000000000D+01
 ****
     24 0
 S   6 1.00       0.000000000000
      0.1357534968D+05  0.6064550360D-03
      0.2035233368D+04  0.4697908888D-02
      0.4632256236D+03  0.2433247765D-01
      0.1312001960D+03  0.9739996831D-01
      0.4285301589D+02  0.3019558425D+00
      0.1558418577D+02  0.6623360914D+00
 S   2 1.00       0.000000000000
      0.6206713851D+01  0.6559530854D+00
      0.2576489653D+01  0.3758563329D+00
 S   1 1.00       0.000000000000
      0.5769633942D+00  0.1000000000D+01
 S   1 1.00       0.000000000000
      0.2297283136D+00  0.1000000000D+01
 S   1 1.00       0.000000000000
      0.9516444003D-01  0.1000000000D+01
 P   4 1.00       0.000000000000
      0.3469723224D+02  0.1132722000D-01
      0.7958262283D+01  0.7616965920D-01
      0.2378082688D+01  0.3019225220D+00
      0.8143320818D+00  0.7278502735D+00
 P   1 1.00       0.000000000000
      0.2888754725D+00  0.1000000000D+01
 P   1 1.00       0.000000000000
      0.1005682367D+00  0.1000000000D+01
 D   1 1.00       0.000000000000
      0.1097000000D+01  0.1000000000D+01
 D   1 1.00       0.000000000000
      0.3180000000D+00  0.1000000000D+01
 F   1 1.00       0.000000000000
      0.7610000000D+00  0.1000000000D+01
 ****
     25 0
 S   6 1.00       0.000000000000
      0.1357534968D+05  0.6064550360D-03
      0.2035233368D+04  0.4697908888D-02
      0.4632256236D+03  0.2433247765D-01
      0.1312001960D+03  0.9739996831D-01
      0.4285301589D+02  0.3019558425D+00
      0.1558418577D+02  0.6623360914D+00
 S   2 1.00       0.000000000000
      0.6206713851D+01  0.6559530854D+00
      0.2576489653D+01  0.3758563329D+00
 S   1 1.00       0.000000000000
      0.5769633942D+00  0.1000000000D+01
 S   1 1.00       0.000000000000
      0.2297283136D+00  0.1000000000D+01
 S   1 1.00       0.000000000000
      0.9516444003D-01  0.1000000000D+01
 P   4 1.00       0.000000000000
      0.3469723224D+02  0.1132722000D-01
      0.7958262283D+01  0.7616965920D-01
      0.2378082688D+01  0.3019225220D+00
      0.8143320818D+00  0.7278502735D+00
 P   1 1.00       0.000000000000
      0.2888754725D+00  0.1000000000D+01
 P   1 1.00       0.000000000000
      0.1005682367D+00  0.1000000000D+01
 D   1 1.00       0.000000000000
      0.1097000000D+01  0.1000000000D+01
 D   1 1.00       0.000000000000
      0.3180000000D+00  0.1000000000D+01
 F   1 1.00       0.000000000000
      0.7610000000D+00  0.1000000000D+01
 ****
     26 0
 S   6 1.00       0.000000000000
      0.1357534968D+05  0.6064550360D-03
      0.2035233368D+04  0.4697908888D-02
      0.4632256236D+03  0.2433247765D-01
      0.1312001960D+03  0.9739996831D-01
      0.4285301589D+02  0.3019558425D+00
      0.1558418577D+02  0.6623360914D+00
 S   2 1.00       0.000000000000
      0.6206713851D+01  0.6559530854D+00
      0.2576489653D+01  0.3758563329D+00
 S   1 1.00       0.000000000000
      0.5769633942D+00  0.1000000000D+01
 S   1 1.00       0.000000000000
      0.2297283136D+00  0.1000000000D+01
 S   1 1.00       0.000000000000
      0.9516444003D-01  0.1000000000D+01
 P   4 1.00       0.000000000000
      0.3469723224D+02  0.1132722000D-01
      0.7958262283D+01  0.7616965920D-01
      0.2378082688D+01  0.3019225220D+00
      0.8143320818D+00  0.7278502735D+00
 P   1 1.00       0.000000000000
      0.2888754725D+00  0.1000000000D+01
 P   1 1.00       0.000000000000
      0.1005682367D+00  0.1000000000D+01
 D   1 1.00       0.000000000000
      0.1097000000D+01  0.1000000000D+01
 D   1 1.00       0.000000000000
      0.3180000000D+00  0.1000000000D+01
 F   1 1.00       0.000000000000
      0.7610000000D+00  0.1000000000D+01
 ****
     27 0
 S   6 1.00       0.000000000000
      0.1357534968D+05  0.6064550360D-03
      0.2035233368D+04  0.4697908888D-02
      0.4632256236D+03  0.2433247765D-01
      0.1312001960D+03  0.9739996831D-01
      0.4285301589D+02  0.3019558425D+00
      0.1558418577D+02  0.6623360914D+00
 S   2 1.00       0.000000000000
      0.6206713851D+01  0.6559530854D+00
      0.2576489653D+01  0.3758563329D+00
 S   1 1.00       0.000000000000
      0.5769633942D+00  0.1000000000D+01
 S   1 1.00       0.000000000000
      0.2297283136D+00  0.1000000000D+01
 S   1 1.00       0.000000000000
      0.9516444003D-01  0.1000000000D+01
 P   4 1.00       0.000000000000
      0.3469723224D+02  0.1132722000D-01
      0.7958262283D+01  0.7616965920D-01
      0.2378082688D+01  0.3019225220D+00
      0.8143320818D+00  0.7278502735D+00
 P   1 1.00       0.000000000000
      0.2888754725D+00  0.1000000000D+01
 P   1 1.00       0.000000000000
      0.1005682367D+00  0.1000000000D+01
 D   1 1.00       0.000000000000
      0.1097000000D+01  0.1000000000D+01
 D   1 1.00       0.000000000000
      0.3180000000D+00  0.1000000000D+01
 F   1 1.00       0.000000000000
      0.7610000000D+00  0.1000000000D+01
 ****
     28 0
 S   6 1.00       0.000000000000
      0.1357534968D+05  0.6064550360D-03
      0.2035233368D+04  0.4697908888D-02
      0.4632256236D+03  0.2433247765D-01
      0.1312001960D+03  0.9739996831D-01
      0.4285301589D+02  0.3019558425D+00
      0.1558418577D+02  0.6623360914D+00
 S   2 1.00       0.000000000000
      0.6206713851D+01  0.6559530854D+00
      0.2576489653D+01  0.3758563329D+00
 S   1 1.00       0.000000000000
      0.5769633942D+00  0.1000000000D+01
 S   1 1.00       0.000000000000
      0.2297283136D+00  0.1000000000D+01
 S   1 1.00       0.000000000000
      0.9516444003D-01  0.1000000000D+01
 P   4 1.00       0.000000000000
      0.3469723224D+02  0.1132722000D-01
      0.7958262283D+01  0.7616965920D-01
      0.2378082688D+01  0.3019225220D+00
      0.8143320818D+00  0.7278502735D+00
 P   1 1.00       0.000000000000
      0.2888754725D+00  0.1000000000D+01
 P   1 1.00       0.000000000000
      0.1005682367D+00  0.1000000000D+01
 D   1 1.00       0.000000000000
      0.1097000000D+01  0.1000000000D+01
 D   1 1.00       0.000000000000
      0.3180000000D+00  0.1000000000D+01
 F   1 1.00       0.000000000000
      0.7610000000D+00  0.1000000000D+01
 ****
     29 0
 S   6 1.00       0.000000000000
      0.1357534968D+05  0.6064550360D-03
      0.2035233368D+04  0.4697908888D-02
      0.4632256236D+03  0.2433247765D-01
      0.1312001960D+03  0.9739996831D-01
      0.4285301589D+02  0.3019558425D+00
      0.1558418577D+02  0.6623360914D+00
 S   2 1.00       0.000000000000
      0.6206713851D+01  0.6559530854D+00
      0.2576489653D+01  0.3758563329D+00
 S   1 1.00       0.000000000000
      0.5769633942D+00  0.1000000000D+01
 S   1 1.00       0.000000000000
      0.2297283136D+00  0.1000000000D+01
 S   1 1.00       0.000000000000
      0.9516444003D-01  0.1000000000D+01
 P   4 1.00       0.000000000000
      0.3469723224D+02  0.1132722000D-01
      0.7958262283D+01  0.7616965920D-01
      0.2378082688D+01  0.3019225220D+00
      0.8143320818D+00  0.7278502735D+00
 P   1 1.00       0.000000000000
      0.2888754725D+00  0.1000000000D+01
 P   1 1.00       0.000000000000
      0.1005682367D+00  0.1000000000D+01
 D   1 1.00       0.000000000000
      0.1097000000D+01  0.1000000000D+01
 D   1 1.00       0.000000000000
      0.3180000000D+00  0.1000000000D+01
 F   1 1.00       0.000000000000
      0.7610000000D+00  0.1000000000D+01
 ****
     30 0
 S   6 1.00       0.000000000000
      0.1357534968D+05  0.6064550360D-03
      0.2035233368D+04  0.4697908888D-02
      0.4632256236D+03  0.2433247765D-01
      0.1312001960D+03  0.9739996831D-01
      0.4285301589D+02  0.3019558425D+00
      0.1558418577D+02  0.6623360914D+00
 S   2 1.00       0.000000000000
      0.6206713851D+01  0.6559530854D+00
      0.2576489653D+01  0.3758563329D+00
 S   1 1.00       0.000000000000
      0.5769633942D+00  0.1000000000D+01
 S   1 1.00       0.000000000000
      0.2297283136D+00  0.1000000000D+01
 S   1 1.00       0.000000000000
      0.9516444003D-01  0.1000000000D+01
 P   4 1.00       0.000000000000
      0.3469723224D+02  0.1132722000D-01
      0.7958262283D+01  0.7616965920D-01
      0.2378082688D+01  0.3019225220D+00
      0.8143320818D+00  0.7278502735D+00
 P   1 1.00       0.000000000000
      0.2888754725D+00  0.1000000000D+01
 P   1 1.00       0.000000000000
      0.1005682367D+00  0.1000000000D+01
 D   1 1.00       0.000000000000
      0.1097000000D+01  0.1000000000D+01
 D   1 1.00       0.000000000000
      0.3180000000D+00  0.1000000000D+01
 F   1 1.00       0.000000000000
      0.7610000000D+00  0.1000000000D+01
 ****
     31 0
 S   6 1.00       0.000000000000
      0.1357534968D+05  0.6064550360D-03
      0.2035233368D+04  0.4697908888D-02
      0.4632256236D+03  0.2433247765D-01
      0.1312001960D+03  0.9739996831D-01
      0.4285301589D+02  0.3019558425D+00
      0.1558418577D+02  0.6623360914D+00
 S   2 1.00       0.000000000000
      0.6206713851D+01  0.6559530854D+00
      0.2576489653D+01  0.3758563329D+00
 S   1 1.00       0.000000000000
      0.5769633942D+00  0.1000000000D+01
 S   1 1.00       0.000000000000
      0.2297283136D+00  0.1000000000D+01
 S   1 1.00       0.000000000000
      0.9516444003D-01  0.1000000000D+01
 P   4 1.00       0.000000000000
      0.3469723224D+02  0.1132722000D-01
      0.7958262283D+01  0.7616965920D-01
      0.2378082688D+01  0.3019225220D+00
      0.8143320818D+00  0.7278502735D+00
 P   1 1.00       0.000000000000
      0.2888754725D+00  0.1000000000D+01
 P   1 1.00       0.000000000000
      0.1005682367D+00  0.1000000000D+01
 D   1 1.00       0.000000000000
      0.1097000000D+01  0.1000000000D+01
 D   1 1.00       0.000000000000
      0.3180000000D+00  0.1000000000D+01
 F   1 1.00       0.000000000000
      0.7610000000D+00  0.1000000000D+01
 ****
     32 0
 S   6 1.00       0.000000000000
      0.1357534968D+05  0.6064550360D-03
      0.2035233368D+04  0.4697908888D-02
      0.4632256236D+03  0.2433247765D-01
      0.1312001960D+03  0.9739996831D-01
      0.4285301589D+02  0.3019558425D+00
      0.1558418577D+02  0.6623360914D+00
 S   2 1.00       0.000000000000
      0.6206713851D+01  0.6559530854D+00
      0.2576489653D+01  0.3758563329D+00
 S   1 1.00       0.000000000000
      0.5769633942D+00  0.1000000000D+01
 S   1 1.00       0.000000000000
      0.2297283136D+00  0.1000000000D+01
 S   1 1.00       0.000000000000
      0.9516444003D-01  0.1000000000D+01
 P   4 1.00       0.000000000000
      0.3469723224D+02  0.1132722000D-01
      0.7958262283D+01  0.7616965920D-01
      0.2378082688D+01  0.3019225220D+00
      0.8143320818D+00  0.7278502735D+00
 P   1 1.00       0.000000000000
      0.2888754725D+00  0.1000000000D+01
 P   1 1.00       0.000000000000
      0.1005682367D+00  0.1000000000D+01
 D   1 1.00       0.000000000000
      0.1097000000D+01  0.1000000000D+01
 D   1 1.00       0.000000000000
      0.3180000000D+00  0.1000000000D+01
 F   1 1.00       0.000000000000
      0.7610000000D+00  0.1000000000D+01
 ****
     33 0
 S   6 1.00       0.000000000000
      0.1357534968D+05  0.6064550360D-03
      0.2035233368D+04  0.4697908888D-02
      0.4632256236D+03  0.2433247765D-01
      0.1312001960D+03  0.9739996831D-01
      0.4285301589D+02  0.3019558425D+00
      0.1558418577D+02  0.6623360914D+00
 S   2 1.00       0.000000000000
      0.6206713851D+01  0.6559530854D+00
      0.2576489653D+01  0.3758563329D+00
 S   1 1.00       0.000000000000
      0.5769633942D+00  0.1000000000D+01
 S   1 1.00       0.000000000000
      0.2297283136D+00  0.1000000000D+01
 S   1 1.00       0.000000000000
      0.9516444003D-01  0.1000000000D+01
 P   4 1.00       0.000000000000
      0.3469723224D+02  0.1132722000D-01
      0.7958262283D+01  0.7616965920D-01
      0.2378082688D+01  0.3019225220D+00
      0.8143320818D+00  0.7278502735D+00
 P   1 1.00       0.000000000000
      0.2888754725D+00  0.1000000000D+01
 P   1 1.00       0.000000000000
      0.1005682367D+00  0.1000000000D+01
 D   1 1.00       0.000000000000
      0.1097000000D+01  0.1000000000D+01
 D   1 1.00       0.000000000000
      0.3180000000D+00  0.1000000000D+01
 F   1 1.00       0.000000000000
      0.7610000000D+00  0.1000000000D+01
 ****
     34 0
 S   6 1.00       0.000000000000
      0.1357534968D+05  0.6064550360D-03
      0.2035233368D+04  0.4697908888D-02
      0.4632256236D+03  0.2433247765D-01
      0.1312001960D+03  0.9739996831D-01
      0.4285301589D+02  0.3019558425D+00
      0.1558418577D+02  0.6623360914D+00
 S   2 1.00       0.000000000000
      0.6206713851D+01  0.6559530854D+00
      0.2576489653D+01  0.3758563329D+00
 S   1 1.00       0.000000000000
      0.5769633942D+00  0.1000000000D+01
 S   1 1.00       0.000000000000
      0.2297283136D+00  0.1000000000D+01
 S   1 1.00       0.000000000000
      0.9516444003D-01  0.1000000000D+01
 P   4 1.00       0.000000000000
      0.3469723224D+02  0.1132722000D-01
      0.7958262283D+01  0.7616965920D-01
      0.2378082688D+01  0.3019225220D+00
      0.8143320818D+00  0.7278502735D+00
 P   1 1.00       0.000000000000
      0.2888754725D+00  0.1000000000D+01
 P   1 1.00       0.000000000000
      0.1005682367D+00  0.1000000000D+01
 D   1 1.00       0.000000000000
      0.1097000000D+01  0.1000000000D+01
 D   1 1.00       0.000000000000
      0.3180000000D+00  0.1000000000D+01
 F   1 1.00       0.000000000000
      0.7610000000D+00  0.1000000000D+01
 ****
     35 0
 S   6 1.00       0.000000000000
      0.1357534968D+05  0.6064550360D-03
      0.2035233368D+04  0.4697908888D-02
      0.4632256236D+03  0.2433247765D-01
      0.1312001960D+03  0.9739996831D-01
      0.4285301589D+02  0.3019558425D+00
      0.1558418577D+02  0.6623360914D+00
 S   2 1.00       0.000000000000
      0.6206713851D+01  0.6559530854D+00
      0.2576489653D+01  0.3758563329D+00
 S   1 1.00       0.000000000000
      0.5769633942D+00  0.1000000000D+01
 S   1 1.00       0.000000000000
      0.2297283136D+00  0.1000000000D+01
 S   1 1.00       0.000000000000
      0.9516444003D-01  0.1000000000D+01
 P   4 1.00       0.000000000000
      0.3469723224D+02  0.1132722000D-01
      0.7958262283D+01  0.7616965920D-01
      0.2378082688D+01  0.3019225220D+00
      0.8143320818D+00  0.7278502735D+00
 P   1 1.00       0.000000000000
      0.2888754725D+00  0.1000000000D+01
 P   1 1.00       0.000000000000
      0.1005682367D+00  0.1000000000D+01
 D   1 1.00       0.000000000000
      0.1097000000D+01  0.1000000000D+01
 D   1 1.00       0.000000000000
      0.3180000000D+00  0.1000000000D+01
 F   1 1.00       0.000000000000
      0.7610000000D+00  0.1000000000D+01
 ****
     36 0
 S   6 1.00       0.000000000000
      0.1357534968D+05  0.6064550360D-03
      0.2035233368D+04  0.4697908888D-02
      0.4632256236D+03  0.2433247765D-01
      0.1312001960D+03  0.9739996831D-01
      0.4285301589D+02  0.3019558425D+00
      0.1558418577D+02  0.6623360914D+00
 S   2 1.00       0.000000000000
      0.6206713851D+01  0.6559530854D+00
      0.2576489653D+01  0.3758563329D+00
 S   1 1.00       0.000000000000
      0.5769633942D+00  0.1000000000D+01
 S   1 1.00       0.000000000000
      0.2297283136D+00  0.1000000000D+01
 S   1 1.00       0.000000000000
      0.9516444003D-01  0.1000000000D+01
 P   4 1.00       0.000000000000
      0.3469723224D+02  0.1132722000D-01
      0.7958262283D+01  0.7616965920D-01
      0.2378082688D+01  0.3019225220D+00
      0.8143320818D+00  0.7278502735D+00
 P   1 1.00       0.000000000000
      0.2888754725D+00  0.1000000000D+01
 P   1 1.00       0.000000000000
      0.1005682367D+00  0.1000000000D+01
 D   1 1.00       0.000000000000
      0.1097000000D+01  0.1000000000D+01
 D   1 1.00       0.000000000000
      0.3180000000D+00  0.1000000000D+01
 F   1 1.00       0.000000000000
      0.7610000000D+00  0.1000000000D+01
 ****
     37 0
 S   6 1.00       0.000000000000
      0.1357534968D+05  0.6064550360D-03
      0.2035233368D+04  0.4697908888D-02
      0.4632256236D+03  0.2433247765D-01
      0.1312001960D+03  0.9739996831D-01
      0.4285301589D+02  0.3019558425D+00
      0.1558418577D+02  0.6623360914D+00
 S   2 1.00       0.000000000000
      0.6206713851D+01  0.6559530854D+00
      0.2576489653D+01  0.3758563329D+00
 S   1 1.00       0.000000000000
      0.5769633942D+00  0.1000000000D+01
 S   1 1.00       0.000000000000
      0.2297283136D+00  0.1000000000D+01
 S   1 1.00       0.000000000000
      0.9516444003D-01  0.1000000000D+01
 P   4 1.00       0.000000000000
      0.3469723224D+02  0.1132722000D-01
      0.7958262283D+01  0.7616965920D-01
      0.2378082688D+01  0.3019225220D+00
      0.8143320818D+00  0.7278502735D+00
 P   1 1.00       0.000000000000
      0.2888754725D+00  0.1000000000D+01
 P   1 1.00       0.000000000000
      0.1005682367D+00  0.1000000000D+01
 D   1 1.00       0.000000000000
      0.1097000000D+01  0.1000000000D+01
 D   1 1.00       0.000000000000
      0.3180000000D+00  0.1000000000D+01
 F   1 1.00       0.000000000000
      0.7610000000D+00  0.1000000000D+01
 ****
     38 0
 S   6 1.00       0.000000000000
      0.1357534968D+05  0.6064550360D-03
      0.2035233368D+04  0.4697908888D-02
      0.4632256236D+03  0.2433247765D-01
      0.1312001960D+03  0.9739996831D-01
      0.4285301589D+02  0.3019558425D+00
      0.1558418577D+02  0.6623360914D+00
 S   2 1.00       0.000000000000
      0.6206713851D+01  0.6559530854D+00
      0.2576489653D+01  0.3758563329D+00
 S   1 1.00       0.000000000000
      0.5769633942D+00  0.1000000000D+01
 S   1 1.00       0.000000000000
      0.2297283136D+00  0.1000000000D+01
 S   1 1.00       0.000000000000
      0.9516444003D-01  0.1000000000D+01
 P   4 1.00       0.000000000000
      0.3469723224D+02  0.1132722000D-01
      0.7958262283D+01  0.7616965920D-01
      0.2378082688D+01  0.3019225220D+00
      0.8143320818D+00  0.7278502735D+00
 P   1 1.00       0.000000000000
      0.2888754725D+00  0.1000000000D+01
 P   1 1.00       0.000000000000
      0.1005682367D+00  0.1000000000D+01
 D   1 1.00       0.000000000000
      0.1097000000D+01  0.1000000000D+01
 D   1 1.00       0.000000000000
      0.3180000000D+00  0.1000000000D+01
 F   1 1.00       0.000000000000
      0.7610000000D+00  0.1000000000D+01
 ****
     39 0
 S   6 1.00       0.000000000000
      0.1357534968D+05  0.6064550360D-03
      0.2035233368D+04  0.4697908888D-02
      0.4632256236D+03  0.2433247765D-01
      0.1312001960D+03  0.9739996831D-01
      0.4285301589D+02  0.3019558425D+00
      0.1558418577D+02  0.6623360914D+00
 S   2 1.00       0.000000000000
      0.6206713851D+01  0.6559530854D+00
      0.2576489653D+01  0.3758563329D+00
 S   1 1.00       0.000000000000
      0.5769633942D+00  0.1000000000D+01
 S   1 1.00       0.000000000000
      0.2297283136D+00  0.1000000000D+01
 S   1 1.00       0.000000000000
      0.9516444003D-01  0.1000000000D+01
 P   4 1.00       0.000000000000
      0.3469723224D+02  0.1132722000D-01
      0.7958262283D+01  0.7616965920D-01
      0.2378082688D+01  0.3019225220D+00
      0.8143320818D+00  0.7278502735D+00
 P   1 1.00       0.000000000000
      0.2888754725D+00  0.1000000000D+01
 P   1 1.00       0.000000000000
      0.1005682367D+00  0.1000000000D+01
 D   1 1.00       0.000000000000
      0.1097000000D+01  0.1000000000D+01
[...]
 (esu units = statvolt**-1 cm**4 , SI units = C**3 m**3 J**-2)
 Beta(0;0,0):
               (au)            (10**-30 esu)      (10**-50 SI)
   || (z)    -0.712722D+04     -0.615736D+02     -0.228524D+02
   _|_(z)    -0.237574D+04     -0.205245D+02     -0.761748D+01
   x          0.137216D+06      0.118544D+04      0.439964D+03
   y          0.127494D+04      0.110145D+02      0.408793D+01
   z         -0.356361D+05     -0.307868D+03     -0.114262D+03
   ||         0.283548D+05      0.244963D+03      0.909156D+02
   xxx        0.428808D+05      0.370456D+03      0.137491D+03
   xxy        0.381759D+03      0.329810D+01      0.122406D+01
   yxy        0.331426D+02      0.286326D+00      0.106267D+00
   yyy       -0.361608D+01     -0.312401D-01     -0.115945D-01
   xxz       -0.116570D+05     -0.100707D+03     -0.373766D+02
   yxz       -0.118935D+03     -0.102750D+01     -0.381348D+00
   yyz       -0.122076D+03     -0.105464D+01     -0.391420D+00
   zxz        0.282480D+04      0.244040D+02      0.905731D+01
   zyz        0.468382D+02      0.404645D+00      0.150180D+00
   zzz       -0.996113D+02     -0.860564D+00     -0.319390D+00
 Beta(-w;w,0) w= 1064.0nm:
                  (au)         (10**-30 esu)      (10**-50 SI)
   || (z)    -0.812516D+04     -0.701951D+02     -0.260522D+02
   _|_(z)    -0.277019D+04     -0.239323D+02     -0.888223D+01
   x          0.154825D+06      0.133757D+04      0.496425D+03
   y          0.147421D+04      0.127360D+02      0.472685D+01
   z         -0.406258D+05     -0.350975D+03     -0.130261D+03
   ||         0.320146D+05      0.276581D+03      0.102650D+03
   xxx        0.483703D+05      0.417881D+03      0.155093D+03
   yxx        0.446661D+03      0.385881D+01      0.143216D+01
   yyx        0.471687D+02      0.407501D+00      0.151240D+00
   zxx       -0.130698D+05     -0.112913D+03     -0.419064D+02
   zyx       -0.135851D+03     -0.117365D+01     -0.435587D+00
   zzx        0.332680D+04      0.287410D+02      0.106669D+02
   xxy        0.442056D+03      0.381902D+01      0.141739D+01
   yxy       -0.144649D+02     -0.124966D+00     -0.463798D-01
   yyy       -0.404640D+01     -0.349578D-01     -0.129742D-01
   zxy       -0.130609D+03     -0.112836D+01     -0.418780D+00
   zyy       -0.737935D+02     -0.637519D+00     -0.236609D+00
   zzy        0.488854D+02      0.422332D+00      0.156744D+00
   xxz       -0.132419D+05     -0.114400D+03     -0.424583D+02
   yxz       -0.135966D+03     -0.117464D+01     -0.435956D+00
   yyz       -0.870679D+02     -0.752199D+00     -0.279171D+00
   zxz        0.318457D+04      0.275122D+02      0.102109D+02
   zyz        0.510430D+02      0.440972D+00      0.163662D+00
   zzz       -0.336585D+03     -0.290783D+01     -0.107921D+01

 ----------------------------------------------------------------------

 Dipole orientation:
    44         -0.39237343          0.02080115          1.68440773
    17         -1.37847667          0.08370809          6.40977967
    15         -3.72415660         -2.70833623          0.12850476
    15         -3.82747392          2.58394289          0.04186538
    15          3.11588239         -2.57366528          2.97579978
    15          3.02076202          2.73720430          2.98759979
     8          5.83421707         -0.08809858        -15.16600571
     8          1.80405154         -0.18487357        -15.86592578
     7          3.63169796         -0.12373367        -14.43545954
     7          0.14121362         -0.10627234         -8.37530768
     6          0.77385124          0.00189258         -1.82318964
     6          1.43844069         -0.01488273         -4.07326736
     6          2.07119916         -0.03912649         -6.65527598
     6          4.63934431          0.00478040         -7.47526644
     6          5.19332523         -0.02193100        -10.02504242
     6          3.16879713         -0.09201622        -11.73906589
     6          0.68407505         -0.13134593        -10.81771426
     6         -5.13694301         -0.12110130         -1.82461339
     6          4.77425060          0.10799218          4.57290545
     6         -3.07572229         -5.41293455         -1.98006315
     6         -2.66941758         -5.14492003         -4.58921379
     6         -2.07614172         -7.25488552         -6.07003933
     6         -1.86119557         -9.64643395         -4.97101288
     6         -2.24107675         -9.92617117         -2.36875337
     6         -2.84405517         -7.82752525         -0.88600656
     6         -6.43734614         -3.89763268          1.98673987
     6         -8.50097071         -5.02333555          0.73686635
     6        -10.57626322         -5.90087401          2.10749794
     6        -10.61678538         -5.67347603          4.74485296
     6         -8.57937440         -4.55609658          5.99474730
     6         -6.49516263         -3.66244271          4.62704762
     6         -3.30220877          5.23753194         -2.16687994
     6         -2.85716559          4.88700941         -4.76037034
     6         -2.36456022          6.96429936         -6.32207745
     6         -2.28959706          9.40685490         -5.32103898
     6         -2.71183492          9.77092893         -2.73608904
     6         -3.21571784          7.70445199         -1.17339062
     6         -6.58139360          3.72600035          1.86877199
     6         -8.71468389          4.67681216          0.59083460
     6        -10.81597175          5.51978390          1.94317617
     6        -10.81281919          5.43329197          4.58935773
     6         -8.70531688          4.49144964          5.86719175
     6         -6.59433529          3.63230179          4.51842153
     6          5.31400082         -3.87396960          0.60194162
     6          7.91236537         -3.34543490          0.54891105
     6          9.47589013         -4.47111039         -1.26434881
     6          8.46198576         -6.14205715         -3.03915494
     6          5.87215377         -6.67745354         -3.00245522
     6          4.30820284         -5.54446889         -1.20449236
     6          2.97315123         -5.17282053          5.30146671
     6          0.63160774         -6.18774399          6.01438590
     6          0.51294510         -8.19133853          7.73539004
     6          2.73017390         -9.18408817          8.77147618
     6          5.07427467         -8.17420742          8.07616412
     6          5.19781536         -6.18614698          6.34372092
     6          2.74891488          5.29217644          5.34881029
     6          4.86887701          6.12733585          6.71410500
     6          4.64541808          8.10790519          8.44617757
     6          2.30721006          9.28594453          8.82028288
     6          0.19294054          8.46758324          7.46485143
     6          0.41027404          6.47245931          5.74498120
     6          5.18480728          4.15649951          0.64941016
     6          4.11051068          5.58914291         -1.31317499
     6          5.64857366          6.81218007         -3.07658810
     6          8.27940435          6.60435984         -2.91767323
     6          9.36429965          5.17281235         -0.98114464
     6          7.82680238          3.95965804          0.79520060
     1          6.14197749          0.05845363         -6.06703862
     1          7.13093248          0.00941120        -10.72390011
     1         -0.88926451         -0.18515736        -12.15705581
     1         -4.23433872         -0.13244450         -3.69142956
     1         -7.20217450         -0.16578703         -2.04453213
     1          4.11912167          0.08869731          6.54433086
     1          6.84958632          0.13521229          4.55874172
     1         -2.77225576         -3.29995648         -5.50249514
     1         -1.77393189         -7.01334960         -8.09872023
     1         -1.39879330        -11.28824235         -6.13554490
     1         -2.07360141        -11.78624829         -1.48706411
     1         -3.14293678         -8.08265677          1.14113977
     1         -8.48845253         -5.22778596         -1.31869622
     1        -12.16691261         -6.76875761          1.11602669
     1        -12.24054487         -6.36692073          5.81702987
     1         -8.60325236         -4.36535672          8.05138873
     1         -4.92553450         -2.75059912          5.61049057
     1         -2.85350663          3.00467249         -5.59988036
     1         -2.03154509          6.65713572         -8.33703686
     1         -1.90483349         11.02263767         -6.54851295
     1         -2.65685915         11.67176170         -1.93047130
     1         -3.55662584          8.02746192          0.83716999
     1         -8.73683376          4.77166209         -1.47265524
     1        -12.46137271          6.25048471          0.93068532
     1        -12.45764355          6.09934205          5.64673169
     1         -8.69470163          4.41145283          7.93121337
     1         -4.96792895          2.85506428          5.52461718
     1          8.75645668         -2.05594053          1.91776410
     1         11.49508818         -4.03707104         -1.28012188
     1          9.68437304         -7.02167489         -4.45260181
     1          5.05872843         -7.97167337         -4.39057753
     1          2.28659870         -5.95572712         -1.21608878
     1         -1.10016597         -5.38543209          5.24160382
     1         -1.32333607         -8.96805042          8.27423555
     1          2.63590900        -10.74520096         10.12067740
     1          6.81509472         -8.94362044          8.87836157
     1          7.04371106         -5.43869156          5.79654729
     1          6.71398822          5.24341864          6.43203610
     1          6.30505736          8.73636904          9.50279430
     1          2.13553193         10.83839074         10.17173115
     1         -1.64103937          9.37148090          7.75619631
     1         -1.25043640          5.80671529          4.72386005
     1          2.05983266          5.74045787         -1.47386720
     1          4.78315352          7.91894601         -4.58977383
     1          9.48140394          7.55259749         -4.30401092
     1         11.41756777          4.99647771         -0.84416315
     1          8.72255760          2.86360599          2.29522851

 Electric dipole moment (dipole orientation):
 (Debye = 10**-18 statcoulomb cm , SI units = C m)
                  (au)            (Debye)         (10**-30 SI)
   Tot        0.313278D+01      0.796274D+01      0.265609D+02
   x          0.000000D+00      0.000000D+00      0.000000D+00
   y          0.000000D+00      0.000000D+00      0.000000D+00
   z          0.313278D+01      0.796274D+01      0.265609D+02

 Dipole polarizability, Alpha (dipole orientation).
 (esu units = cm**3 , SI units = C**2 m**2 J**-1)
 Alpha(0;0):
               (au)            (10**-24 esu)      (10**-40 SI)
   iso        0.123768D+04      0.183405D+03      0.204066D+03
   aniso      0.465621D+03      0.689979D+02      0.767706D+02
   xx         0.117085D+04      0.173502D+03      0.193047D+03
   yx        -0.260106D+01     -0.385437D+00     -0.428856D+00
   yy         0.105995D+04      0.157068D+03      0.174762D+03
   zx        -0.155950D+03     -0.231094D+02     -0.257127D+02
   zy         0.278079D+01      0.412070D+00      0.458490D+00
   zz         0.148224D+04      0.219645D+03      0.244389D+03
 Alpha(-w;w) w= 1064.0nm:
                  (au)         (10**-24 esu)      (10**-40 SI)
   iso        0.107241D+04      0.158915D+03      0.176816D+03
   aniso      0.430385D+03      0.637765D+02      0.709609D+02
   xx         0.100042D+04      0.148246D+03      0.164946D+03
   yx        -0.244343D+01     -0.362078D+00     -0.402867D+00
   yy         0.920763D+03      0.136443D+03      0.151813D+03
   zx        -0.150452D+03     -0.222947D+02     -0.248062D+02
   zy         0.224411D+01      0.332543D+00      0.370004D+00
   zz         0.129605D+04      0.192055D+03      0.213689D+03

 First dipole hyperpolarizability, Beta (dipole orientation).
 ||, _|_  parallel and perpendicular components, (z) with respect to z axis,
 vector components x,y,z.  Values do not include the 1/n! factor of 1/2.
 (esu units = statvolt**-1 cm**4 , SI units = C**3 m**3 J**-2)
 Beta(0;0,0):
               (au)            (10**-30 esu)      (10**-50 SI)
   || (z)    -0.274365D+05     -0.237030D+03     -0.879712D+02
   _|_(z)    -0.914548D+04     -0.790099D+02     -0.293237D+02
   x          0.357710D+05      0.309034D+03      0.114695D+03
   y         -0.113000D+04     -0.976233D+01     -0.362319D+01
   z         -0.137182D+06     -0.118515D+04     -0.439856D+03
   ||         0.283548D+05      0.244963D+03      0.909156D+02
   xxx        0.794022D+03      0.685973D+01      0.254592D+01
   xxy       -0.111603D+02     -0.964165D-01     -0.357840D-01
   yxy       -0.892033D+02     -0.770647D+00     -0.286018D+00
   yyy       -0.122157D+02     -0.105534D+00     -0.391678D-01
   xxz       -0.232864D+04     -0.201176D+02     -0.746645D+01
   yxz        0.126714D+03      0.109471D+01      0.406291D+00
   yyz       -0.866773D+02     -0.748824D+00     -0.277919D+00
   zxz        0.112189D+05      0.969221D+02      0.359717D+02
   zyz       -0.353291D+03     -0.305216D+01     -0.113278D+01
   zzz       -0.433121D+05     -0.374183D+03     -0.138874D+03
 Beta(-w;w,0) w= 1064.0nm:
                  (au)         (10**-30 esu)      (10**-50 SI)
   || (z)    -0.309981D+05     -0.267799D+03     -0.993911D+02
   _|_(z)    -0.104221D+05     -0.900388D+02     -0.334170D+02
   x          0.399974D+05      0.345546D+03      0.128246D+03
   y         -0.124799D+04     -0.107817D+02     -0.400151D+01
   z         -0.154991D+06     -0.133900D+04     -0.496956D+03
   ||         0.320146D+05      0.276581D+03      0.102650D+03
   xxx        0.811030D+03      0.700667D+01      0.260045D+01
   yxx       -0.144349D+02     -0.124706D+00     -0.462835D-01
   yyx       -0.520585D+02     -0.449745D+00     -0.166919D+00
   zxx       -0.266580D+04     -0.230305D+02     -0.854753D+01
   zyx        0.131356D+03      0.113482D+01      0.421176D+00
   zzx        0.125319D+05      0.108266D+03      0.401818D+02
   xxy       -0.167460D+02     -0.144673D+00     -0.536939D-01
   yxy       -0.705309D+02     -0.609332D+00     -0.226148D+00
   yyy       -0.891458D+01     -0.770151D-01     -0.285834D-01
   zxy        0.131616D+03      0.113706D+01      0.422010D+00
   zyy       -0.213409D+02     -0.184369D+00     -0.684268D-01
   zzy       -0.399053D+03     -0.344750D+01     -0.127951D+01
   xxz       -0.287390D+04     -0.248283D+02     -0.921477D+01
   yxz        0.131501D+03      0.113607D+01      0.421640D+00
   yyz       -0.814173D+02     -0.703382D+00     -0.261053D+00
   zxz        0.126128D+05      0.108964D+03      0.404411D+02
   zyz       -0.388289D+03     -0.335451D+01     -0.124499D+01
   zzz       -0.488870D+05     -0.422345D+03     -0.156749D+03

 ----------------------------------------------------------------------
 1\1\GINC-NEQC30\SP\RB3LYP\Gen\C57H47Cl1N2O2P4Ru1\GUEST\18-Sep-2019\0\\
 #B3LYP/gen gfinput scf=(maxcycle=1000,conver=4) Polar CPHF=RdFreq scrf
 =(solvent=THF) pseudo=read\\propriedade\\0,1\Ru,0,-0.879529,-0.004921,
 0.253265\Cl,0,-3.317377,-0.017055,1.016779\P,0,-1.002757,-1.410242,-1.
 717022\P,0,-1.02341,1.391118,-1.72913\P,0,-0.554348,-1.414156,2.178573
 \P,0,-0.618483,1.395908,2.195837\O,0,8.512169,0.081986,-1.216055\O,0,7
 .796392,0.064365,-3.259446\N,0,7.606667,0.069293,-2.045606\N,0,3.90635
 7,0.034599,-2.09541\C,0,1.041916,0.015994,-0.112564\C,0,2.252978,0.027
 49,-0.385878\C,0,3.609222,0.038875,-0.759564\C,0,4.650321,0.054573,0.2
 15928\C,0,5.971366,0.064806,-0.185868\C,0,6.241353,0.059517,-1.563874\
 C,0,5.17492,0.044594,-2.474641\C,0,-0.481572,-0.011057,-2.844959\C,0,-
 0.881577,-0.023646,3.385876\C,0,0.156042,-2.822117,-1.99075\C,0,1.4645
 23,-2.654367,-2.472851\C,0,2.315263,-3.758187,-2.603692\C,0,1.878362,-
 5.036794,-2.247211\C,0,0.579957,-5.21084,-1.754808\C,0,-0.274101,-4.11
 2967,-1.628078\C,0,-2.553563,-2.042318,-2.504366\C,0,-2.501305,-2.6108
 87,-3.792319\C,0,-3.664279,-3.076796,-4.407275\C,0,-4.894606,-2.985121
 ,-3.743491\C,0,-4.953583,-2.420787,-2.467734\C,0,-3.789766,-1.946442,-
 1.847725\C,0,0.115445,2.815746,-2.026906\C,0,1.430662,2.655854,-2.4938
 47\C,0,2.265876,3.768729,-2.646191\C,0,1.807051,5.049456,-2.326701\C,0
 ,0.501576,5.216464,-1.851278\C,0,-0.337075,4.109371,-1.70377\C,0,-2.58
 5239,1.992991,-2.517835\C,0,-2.551339,2.523705,-3.822466\C,0,-3.723631
 ,2.968356,-4.435304\C,0,-4.94475,2.893598,-3.752505\C,0,-4.985313,2.36
 7796,-2.459716\C,0,-3.812066,1.914486,-1.841656\C,0,1.117788,-2.090182
 ,2.567749\C,0,1.809246,-1.826698,3.760262\C,0,3.057553,-2.412401,4.002
 724\C,0,3.626645,-3.270417,3.058403\C,0,2.944977,-3.537407,1.865546\C,
 0,1.70358,-2.947667,1.619023\C,0,-1.648878,-2.813727,2.683816\C,0,-2.5
 75808,-3.343401,1.774768\C,0,-3.388614,-4.421438,2.141747\C,0,-3.28885
 8,-4.972229,3.422338\C,0,-2.36937,-4.445432,4.337052\C,0,-1.549921,-3.
 375519,3.969207\C,0,-1.79588,2.723439,2.707044\C,0,-1.885058,3.136677,
 4.047602\C,0,-2.755628,4.166914,4.412656\C,0,-3.53927,4.801061,3.44180
 7\C,0,-3.453288,4.396565,2.106606\C,0,-2.589842,3.358534,1.741709\C,0,
 1.0109,2.158446,2.608254\C,0,1.631209,2.944751,1.621607\C,0,2.834819,3
 .601193,1.890882\C,0,3.441472,3.472597,3.144977\C,0,2.835928,2.687089,
 4.129814\C,0,1.626426,2.03573,3.864243\H,0,4.387067,0.057884,1.273802\
 H,0,6.793911,0.076584,0.529422\H,0,5.388109,0.04091,-3.54742\H,0,0.613
 801,-0.002415,-2.909435\H,0,-0.912499,-0.019011,-3.856252\H,0,-1.96123
 4,-0.051233,3.591318\H,0,-0.339789,-0.022433,4.34129\H,0,1.84805,-1.66
 7672,-2.735634\H,0,3.328892,-3.610133,-2.984505\H,0,2.546206,-5.89557,
 -2.351833\H,0,0.227798,-6.2056,-1.470475\H,0,-1.286075,-4.268218,-1.24
 6272\H,0,-1.547128,-2.696614,-4.31878\H,0,-3.611032,-3.514843,-5.40727
 2\H,0,-5.804391,-3.353274,-4.224784\H,0,-5.911101,-2.342252,-1.946393\
 H,0,-3.84501,-1.484916,-0.859028\H,0,1.831546,1.669222,-2.729231\H,0,3
 .284641,3.626159,-3.015244\H,0,2.463,5.915215,-2.447742\H,0,0.131358,6
 .212875,-1.597342\H,0,-1.355946,4.260423,-1.339324\H,0,-1.604368,2.596
 625,-4.363709\H,0,-3.685076,3.376582,-5.448507\H,0,-5.861871,3.244949,
 -4.232457\H,0,-5.935601,2.302802,-1.923502\H,0,-3.852314,1.481832,-0.8
 39361\H,0,1.386339,-1.164942,4.517284\H,0,3.582986,-2.195592,4.936244\
 H,0,4.600653,-3.728135,3.249048\H,0,3.384728,-4.201649,1.117671\H,0,1.
 190024,-3.152109,0.677584\H,0,-2.670738,-2.899361,0.784253\H,0,-4.1063
 03,-4.826434,1.423847\H,0,-3.926448,-5.812267,3.709569\H,0,-2.285907,-
 4.872448,5.339691\H,0,-0.825716,-2.985971,4.689081\H,0,-1.273041,2.660
 29,4.817601\H,0,-2.819633,4.477145,5.4587\H,0,-4.217887,5.608646,3.727
 954\H,0,-4.066847,4.883349,1.34436\H,0,-2.542272,3.028199,0.703914\H,0
 ,1.175415,3.039744,0.634455\H,0,3.303497,4.208836,1.113036\H,0,4.38594
 5,3.981694,3.353212\H,0,3.303505,2.579103,5.111775\H,0,1.171584,1.4337
 04,4.652828\\Version=EM64L-G09RevD.01\State=1-A\HF=-4381.9431221\RMSD=
 1.457e-05\Dipole=-2.7349821,-0.0648378,1.5264362\Polar=1541.0068408,3.
 198466,1060.0134113,-50.6822309,-2.610003,1112.0164778\HyperPolar=4288
 0.7674106,381.7590971,33.1425804,-3.6160811,-11657.0086132,-118.934874
 3,-122.0759562,2824.795178,46.8381605,-99.611292\Quadrupole=-56.316526
 ,28.5274782,27.7890477,-0.8630554,34.69955,0.0317821\PG=C01 [X(C57H47C
 l1N2O2P4Ru1)]\\@


 THERE ONCE WAS A GIRL NAMED IRENE,
 WHO LIVED ON DISTILLED KEROSENE,
      BUT SHE STARTED ABSORBIN'
      A NEW HYDROCARBON,
 AND SINCE THEN HAS NEVER BENZENE.
 Job cpu time:      49 days 21 hours 34 minutes 39.5 seconds.
 File lengths (MBytes):  RWF=  21447 Int=      0 D2E=      0 Chk=    246 Scr=      1
 Normal termination of Gaussian 09 at Wed Sep 18 12:33:38 2019.
