 Entering Gaussian System, Link 0=g16
 Input=/home/nqtcm/Documentos/Julio/SQ01_Polar_Cam-B3LYP_6-31+G_d-p_IEF-PCM.com
 Output=/home/nqtcm/Documentos/Julio/SQ01_Polar_Cam-B3LYP_6-31+G_d-p_IEF-PCM.log
 Initial command:
 /scr/programas/g16/l1.exe "/scr/nqtcm/Gau-32117.inp" -scrdir="/scr/nqtcm/"
 Entering Link 1 = /scr/programas/g16/l1.exe PID=     32119.
  
 Copyright (c) 1988-2019, Gaussian, Inc.  All Rights Reserved.
  
 This is part of the Gaussian(R) 16 program.  It is based on
 the Gaussian(R) 09 system (copyright 2009, Gaussian, Inc.),
 the Gaussian(R) 03 system (copyright 2003, Gaussian, Inc.),
 the Gaussian(R) 98 system (copyright 1998, Gaussian, Inc.),
 the Gaussian(R) 94 system (copyright 1995, Gaussian, Inc.),
 the Gaussian 92(TM) system (copyright 1992, Gaussian, Inc.),
 the Gaussian 90(TM) system (copyright 1990, Gaussian, Inc.),
 the Gaussian 88(TM) system (copyright 1988, Gaussian, Inc.),
 the Gaussian 86(TM) system (copyright 1986, Carnegie Mellon
 University), and the Gaussian 82(TM) system (copyright 1983,
 Carnegie Mellon University). Gaussian is a federally registered
 trademark of Gaussian, Inc.
  
 This software contains proprietary and confidential information,
 including trade secrets, belonging to Gaussian, Inc.
  
 This software is provided under written license and may be
 used, copied, transmitted, or stored only in accord with that
 written license.
  
 The following legend is applicable only to US Government
 contracts under FAR:
  
                    RESTRICTED RIGHTS LEGEND
  
 Use, reproduction and disclosure by the US Government is
 subject to restrictions as set forth in subparagraphs (a)
 and (c) of the Commercial Computer Software - Restricted
 Rights clause in FAR 52.227-19.
  
 Gaussian, Inc.
 340 Quinnipiac St., Bldg. 40, Wallingford CT 06492
  
  
 ---------------------------------------------------------------
 Warning -- This program may not be used in any manner that
 competes with the business of Gaussian, Inc. or will provide
 assistance to any competitor of Gaussian, Inc.  The licensee
 of this program is prohibited from giving any competitor of
 Gaussian, Inc. access to this program.  By using this program,
 the user acknowledges that Gaussian, Inc. is engaged in the
 business of creating and licensing software in the field of
 computational chemistry and represents and warrants to the
 licensee that it is not a competitor of Gaussian, Inc. and that
 it will not use this program in any manner prohibited above.
 ---------------------------------------------------------------
  

 Cite this work as:
 Gaussian 16, Revision C.01,
 M. J. Frisch, G. W. Trucks, H. B. Schlegel, G. E. Scuseria, 
 M. A. Robb, J. R. Cheeseman, G. Scalmani, V. Barone, 
 G. A. Petersson, H. Nakatsuji, X. Li, M. Caricato, A. V. Marenich, 
 J. Bloino, B. G. Janesko, R. Gomperts, B. Mennucci, H. P. Hratchian, 
 J. V. Ortiz, A. F. Izmaylov, J. L. Sonnenberg, D. Williams-Young, 
 F. Ding, F. Lipparini, F. Egidi, J. Goings, B. Peng, A. Petrone, 
 T. Henderson, D. Ranasinghe, V. G. Zakrzewski, J. Gao, N. Rega, 
 G. Zheng, W. Liang, M. Hada, M. Ehara, K. Toyota, R. Fukuda, 
 J. Hasegawa, M. Ishida, T. Nakajima, Y. Honda, O. Kitao, H. Nakai, 
 T. Vreven, K. Throssell, J. A. Montgomery, Jr., J. E. Peralta, 
 F. Ogliaro, M. J. Bearpark, J. J. Heyd, E. N. Brothers, K. N. Kudin, 
 V. N. Staroverov, T. A. Keith, R. Kobayashi, J. Normand, 
 K. Raghavachari, A. P. Rendell, J. C. Burant, S. S. Iyengar, 
 J. Tomasi, M. Cossi, J. M. Millam, M. Klene, C. Adamo, R. Cammi, 
 J. W. Ochterski, R. L. Martin, K. Morokuma, O. Farkas, 
 J. B. Foresman, and D. J. Fox, Gaussian, Inc., Wallingford CT, 2019.
 
 ******************************************
 Gaussian 16:  EM64L-G16RevC.01  3-Jul-2019
                26-Jul-2022 
 ******************************************
 %chk=SQ01_Polar_Cam-B3LYP_6-31+G_d-p_IEF-PCM.chk
 %mem=7Gb
 %nproc=4
 Will use up to    4 processors via shared memory.
 ----------------------------------------------------------------------
 #p CAM-B3LYP/gen gfinput scf=maxcycle=200 Polar=(DCSHG) CPHF=RdFreq sc
 rf=(iefpcm,read,solvent=Chloroform)
 ----------------------------------------------------------------------
 1/38=1,40=2,83=1,172=1/1;
 2/12=2,17=6,18=5,40=1/2;
 3/5=7,11=2,24=10,25=1,30=1,70=2203,72=7,74=-40/1,2,3;
 4//1;
 5/5=2,7=200,38=5,53=7,98=1/2;
 8/6=4,10=90,11=11/1;
 10/6=20001,13=10,72=3/2;
 6/7=2,8=2,9=2,10=2,28=1/1;
 99/5=1,9=1/99;
 Leave Link    1 at Tue Jul 26 21:01:10 2022, MaxMem=   939524096 cpu:               0.3 elap:               0.1
 (Enter /scr/programas/g16/l101.exe)
 ------------------------------
 Primeira Hiperpolarizabilidade
 ------------------------------
 Symbolic Z-matrix:
 Charge =  0 Multiplicity = 1
 C                     0.4036    5.5174    0. 
 C                     1.71245   5.02526   0. 
 C                     1.94903   3.64878   0. 
 C                     0.87705   2.75457   0. 
 C                    -0.4386    3.25363   0. 
 C                    -0.67404   4.63208   0. 
 C                    -1.56097   2.30339   0. 
 C                    -1.26837   0.84792   0. 
 C                     0.        0.32371   0. 
 C                     1.14534   1.28041   0. 
 C                     0.35005  -1.08397   0. 
 C                    -0.49041  -2.14818   0. 
 C                    -0.0927   -3.55722   0. 
 C                    -1.10554  -4.5373    0. 
 C                    -0.79731  -5.89649   0. 
 C                     0.5362   -6.31031   0. 
 C                     1.24869  -3.99461   0. 
 C                     1.55596  -5.35151   0. 
 O                    -2.3764    0.09322   0. 
 O                    -2.75118   2.6393    0. 
 O                     2.30583   0.87358   0. 
 H                     0.22498   6.58806   0. 
 H                     2.5505    5.71544   0. 
 H                    -1.69782   4.99037   0. 
 H                     2.95802   3.25172   0. 
 H                     1.42325  -1.24806   0. 
 H                    -1.56093  -1.97463   0. 
 H                     2.05675  -3.27003   0. 
 H                     2.59573  -5.666     0. 
 H                     0.78149  -7.36825   0. 
 H                    -2.14509  -4.21959   0. 
 H                    -1.5971   -6.63147   0. 
 H                    -3.11837   0.73833   0. 
 
 ITRead=  0  0  0  0  0  0  0  0  0  0  0  0  0  0  0  0  0  0  0  0
 ITRead=  0  0  0  0  0  0  0  0  0  0  0  0  0
 MicOpt= -1 -1 -1 -1 -1 -1 -1 -1 -1 -1 -1 -1 -1 -1 -1 -1 -1 -1 -1 -1
 MicOpt= -1 -1 -1 -1 -1 -1 -1 -1 -1 -1 -1 -1 -1
 NAtoms=     33 NQM=       33 NQMF=       0 NMMI=      0 NMMIF=      0
                NMic=       0 NMicF=      0.
                    Isotopes and Nuclear Properties:
 (Nuclear quadrupole moments (NQMom) in fm**2, nuclear magnetic moments (NMagM)
  in nuclear magnetons)

  Atom         1           2           3           4           5           6           7           8           9          10
 IAtWgt=          12          12          12          12          12          12          12          12          12          12
 AtmWgt=  12.0000000  12.0000000  12.0000000  12.0000000  12.0000000  12.0000000  12.0000000  12.0000000  12.0000000  12.0000000
 NucSpn=           0           0           0           0           0           0           0           0           0           0
 AtZEff=  -0.0000000  -0.0000000  -0.0000000  -0.0000000  -0.0000000  -0.0000000  -0.0000000  -0.0000000  -0.0000000  -0.0000000
 NQMom=    0.0000000   0.0000000   0.0000000   0.0000000   0.0000000   0.0000000   0.0000000   0.0000000   0.0000000   0.0000000
 NMagM=    0.0000000   0.0000000   0.0000000   0.0000000   0.0000000   0.0000000   0.0000000   0.0000000   0.0000000   0.0000000
 AtZNuc=   6.0000000   6.0000000   6.0000000   6.0000000   6.0000000   6.0000000   6.0000000   6.0000000   6.0000000   6.0000000

  Atom        11          12          13          14          15          16          17          18          19          20
 IAtWgt=          12          12          12          12          12          12          12          12          16          16
 AtmWgt=  12.0000000  12.0000000  12.0000000  12.0000000  12.0000000  12.0000000  12.0000000  12.0000000  15.9949146  15.9949146
 NucSpn=           0           0           0           0           0           0           0           0           0           0
 AtZEff=  -0.0000000  -0.0000000  -0.0000000  -0.0000000  -0.0000000  -0.0000000  -0.0000000  -0.0000000  -0.0000000  -0.0000000
 NQMom=    0.0000000   0.0000000   0.0000000   0.0000000   0.0000000   0.0000000   0.0000000   0.0000000   0.0000000   0.0000000
 NMagM=    0.0000000   0.0000000   0.0000000   0.0000000   0.0000000   0.0000000   0.0000000   0.0000000   0.0000000   0.0000000
 AtZNuc=   6.0000000   6.0000000   6.0000000   6.0000000   6.0000000   6.0000000   6.0000000   6.0000000   8.0000000   8.0000000

  Atom        21          22          23          24          25          26          27          28          29          30
 IAtWgt=          16           1           1           1           1           1           1           1           1           1
 AtmWgt=  15.9949146   1.0078250   1.0078250   1.0078250   1.0078250   1.0078250   1.0078250   1.0078250   1.0078250   1.0078250
 NucSpn=           0           1           1           1           1           1           1           1           1           1
 AtZEff=  -0.0000000  -0.0000000  -0.0000000  -0.0000000  -0.0000000  -0.0000000  -0.0000000  -0.0000000  -0.0000000  -0.0000000
 NQMom=    0.0000000   0.0000000   0.0000000   0.0000000   0.0000000   0.0000000   0.0000000   0.0000000   0.0000000   0.0000000
 NMagM=    0.0000000   2.7928460   2.7928460   2.7928460   2.7928460   2.7928460   2.7928460   2.7928460   2.7928460   2.7928460
 AtZNuc=   8.0000000   1.0000000   1.0000000   1.0000000   1.0000000   1.0000000   1.0000000   1.0000000   1.0000000   1.0000000

  Atom        31          32          33
 IAtWgt=           1           1           1
 AtmWgt=   1.0078250   1.0078250   1.0078250
 NucSpn=           1           1           1
 AtZEff=  -0.0000000  -0.0000000  -0.0000000
 NQMom=    0.0000000   0.0000000   0.0000000
 NMagM=    2.7928460   2.7928460   2.7928460
 AtZNuc=   1.0000000   1.0000000   1.0000000
 Using perturbation frequencies:    0.000000    0.023893
 Leave Link  101 at Tue Jul 26 21:01:11 2022, MaxMem=   939524096 cpu:               0.9 elap:               0.4
 (Enter /scr/programas/g16/l202.exe)
                          Input orientation:                          
 ---------------------------------------------------------------------
 Center     Atomic      Atomic             Coordinates (Angstroms)
 Number     Number       Type             X           Y           Z
 ---------------------------------------------------------------------
      1          6           0        0.403600    5.517400    0.000000
      2          6           0        1.712450    5.025260    0.000000
      3          6           0        1.949030    3.648780    0.000000
      4          6           0        0.877050    2.754570    0.000000
      5          6           0       -0.438600    3.253630    0.000000
      6          6           0       -0.674040    4.632080    0.000000
      7          6           0       -1.560970    2.303390    0.000000
      8          6           0       -1.268370    0.847920    0.000000
      9          6           0        0.000000    0.323710    0.000000
     10          6           0        1.145340    1.280410    0.000000
     11          6           0        0.350050   -1.083970    0.000000
     12          6           0       -0.490410   -2.148180    0.000000
     13          6           0       -0.092700   -3.557220    0.000000
     14          6           0       -1.105540   -4.537300    0.000000
     15          6           0       -0.797310   -5.896490    0.000000
     16          6           0        0.536200   -6.310310    0.000000
     17          6           0        1.248690   -3.994610    0.000000
     18          6           0        1.555960   -5.351510    0.000000
     19          8           0       -2.376400    0.093220    0.000000
     20          8           0       -2.751180    2.639300    0.000000
     21          8           0        2.305830    0.873580    0.000000
     22          1           0        0.224980    6.588060    0.000000
     23          1           0        2.550500    5.715440    0.000000
     24          1           0       -1.697820    4.990370    0.000000
     25          1           0        2.958020    3.251720    0.000000
     26          1           0        1.423250   -1.248060    0.000000
     27          1           0       -1.560930   -1.974630    0.000000
     28          1           0        2.056750   -3.270030    0.000000
     29          1           0        2.595730   -5.666000    0.000000
     30          1           0        0.781490   -7.368250    0.000000
     31          1           0       -2.145090   -4.219590    0.000000
     32          1           0       -1.597100   -6.631470    0.000000
     33          1           0       -3.118370    0.738330    0.000000
 ---------------------------------------------------------------------
                    Distance matrix (angstroms):
                    1          2          3          4          5
     1  C    0.000000
     2  C    1.398317   0.000000
     3  C    2.424891   1.396663   0.000000
     4  C    2.803103   2.419489   1.395977   0.000000
     5  C    2.415358   2.786699   2.420108   1.407123   0.000000
     6  C    1.394668   2.418662   2.801317   2.435349   1.398412
     7  C    3.766881   4.257212   3.759012   2.479416   1.470602
     8  C    4.959791   5.131808   4.265733   2.870216   2.544791
     9  C    5.209348   5.003704   3.854194   2.584240   2.962567
    10  C    4.301426   3.787547   2.501019   1.498375   2.530309
    11  C    6.601587   6.259299   4.995564   3.874548   4.408712
    12  C    7.717537   7.504054   6.289325   5.089883   5.402058
    13  C    9.088181   8.770264   7.489666   6.385852   6.819628
    14  C   10.167325   9.969133   8.737408   7.556589   7.819424
    15  C   11.476893  11.206405   9.932500   8.811601   9.157149
    16  C   11.828453  11.396434  10.058805   9.071286   9.613490
    17  C    9.549477   9.031784   7.675408   6.759404   7.442038
    18  C   10.929828  10.377950   9.008869   8.134461   8.833273
    19  O    6.095091   6.406537   5.599228   4.203299   3.707190
    20  O    4.270374   5.061304   4.807393   3.630061   2.392787
    21  O    5.018321   4.193870   2.798042   2.362104   3.632703
    22  H    1.085457   2.157524   3.407597   3.888553   3.399818
    23  H    2.156015   1.085669   2.152406   3.401057   3.872367
    24  H    2.166501   3.410448   3.885792   3.410096   2.145204
    25  H    3.414435   2.167231   1.084305   2.139531   3.396621
    26  H    6.841866   6.279983   4.924986   4.039725   4.871519
    27  H    7.745314   7.727450   6.628918   5.320628   5.347366
    28  H    8.941579   8.302432   6.919649   6.139014   6.984620
    29  H   11.396222  10.727685   9.337202   8.594176   9.421622
    30  H   12.891190  12.428426  11.078723  10.123271  10.691724
    31  H   10.065028  10.017378   8.869784   7.600805   7.665581
    32  H   12.312508  12.117445  10.874676   9.706656   9.952755
    33  H    5.936647   6.458683   5.843737   4.475333   3.675310
                    6          7          8          9         10
     6  C    0.000000
     7  C    2.491875   0.000000
     8  C    3.830548   1.484590   0.000000
     9  C    4.360778   2.521063   1.372428   0.000000
    10  C    3.813638   2.893199   2.452151   1.492340   0.000000
    11  C    5.807064   3.889242   2.520215   1.450551   2.494550
    12  C    6.782746   4.578490   3.095454   2.520068   3.798803
    13  C    8.209908   6.041735   4.559327   3.882037   4.993537
    14  C    9.179527   6.855834   5.387681   4.985142   6.237965
    15  C   10.529292   8.235363   6.760840   6.271092   7.435172
    16  C   11.009113   8.865323   7.382190   6.655654   7.615122
    17  C    8.838364   6.896303   5.457627   4.495232   5.276032
    18  C   10.229612   8.265153   6.812472   5.884652   6.644620
    19  O    4.847606   2.355797   1.340635   2.387552   3.716460
    20  O    2.878486   1.236703   2.325461   3.595963   4.126675
    21  O    4.796452   4.122681   3.574292   2.370487   1.229735
    22  H    2.152695   4.641984   5.931214   6.268389   5.386855
    23  H    3.401665   5.342871   6.186802   5.964545   4.652308
    24  H    1.084665   2.690463   4.164651   4.965915   4.674116
    25  H    3.885518   4.617424   4.862163   4.162106   2.678035
    26  H    6.242970   4.638789   3.411444   2.120401   2.543697
    27  H    6.665973   4.278020   2.837672   2.778285   4.233106
    28  H    8.360655   6.644615   5.292819   4.140675   4.640816
    29  H   10.804714   8.988289   7.573798   6.527974   7.096213
    30  H   12.088279   9.951268   8.468021   7.731557   8.656310
    31  H    8.973074   6.549081   5.142791   5.024240   6.409129
    32  H   11.301310   8.934933   7.486611   7.136193   8.373698
    33  H    4.597395   2.207919   1.853243   3.145813   4.298031
                   11         12         13         14         15
    11  C    0.000000
    12  C    1.356066   0.000000
    13  C    2.512567   1.464093   0.000000
    14  C    3.747563   2.467039   1.409398   0.000000
    15  C    4.947402   3.760853   2.443084   1.393701   0.000000
    16  C    5.229654   4.286870   2.824008   2.416376   1.396244
    17  C    3.046207   2.536488   1.410899   2.415970   2.793432
    18  C    4.434650   3.801178   2.436710   2.783257   2.415550
    19  O    2.969732   2.929306   4.305926   4.801750   6.194364
    20  O    4.845654   5.294435   6.742728   7.362861   8.756559
    21  O    2.767142   4.117037   5.038346   6.396489   7.447370
    22  H    7.673049   8.765482  10.150253  11.204638  12.526335
    23  H    7.146605   8.431112   9.642029  10.885096  12.084898
    24  H    6.410256   7.239940   8.696994   9.546062  10.924039
    25  H    5.059616   6.407073   7.461136   8.785292   9.888996
    26  H    1.085672   2.114784   2.762304   4.148961   5.151581
    27  H    2.108345   1.084497   2.158771   2.602817   3.995510
    28  H    2.773388   2.783266   2.168551   3.406766   3.878653
    29  H    5.102752   4.679671   3.416813   3.869543   3.400860
    30  H    6.299073   5.372789   3.910007   3.402229   2.158399
    31  H    4.007223   2.651171   2.156627   1.087016   2.151396
    32  H    5.879298   4.617862   3.422606   2.151088   1.086213
    33  H    3.917999   3.903603   5.254182   5.646570   7.029094
                   16         17         18         19         20
    16  C    0.000000
    17  C    2.422831   0.000000
    18  C    1.399717   1.391256   0.000000
    19  O    7.034802   5.463665   6.716289   0.000000
    20  O    9.534274   7.746465   9.077692   2.573516   0.000000
    21  O    7.398639   4.981648   6.270092   4.746814   5.356409
    22  H   12.902124  10.632069  12.013527   6.996437   4.944718
    23  H   12.193280   9.796927  11.111548   7.475540   6.129474
    24  H   11.519384   9.455781  10.841659   4.943941   2.576256
    25  H    9.863956   7.445207   8.716728   6.199368   5.741953
    26  H    5.139381   2.752092   4.105595   4.029438   5.704159
    27  H    4.816230   3.460388   4.595468   2.222835   4.764981
    28  H    3.399320   1.085347   2.140876   5.564555   7.618161
    29  H    2.157962   2.146640   1.086290   7.608593   9.877624
    30  H    1.086004   3.405837   2.160334   8.102210  10.612767
    31  H    3.400063   3.401229   3.870273   4.319008   6.885617
    32  H    2.157339   3.879633   3.402952   6.769695   9.342327
    33  H    7.939723   6.439871   7.676947   0.983202   1.936108
                   21         22         23         24         25
    21  O    0.000000
    22  H    6.081547   0.000000
    23  H    4.848038   2.483850   0.000000
    24  H    5.742575   2.499955   4.309750   0.000000
    25  H    2.465948   4.312850   2.497196   4.969884   0.000000
    26  H    2.297891   7.927208   7.054149   6.975607   4.754318
    27  H    4.802513   8.746950   8.720151   6.966345   6.909099
    28  H    4.151090  10.026830   8.999026   9.073643   6.583731
    29  H    6.546002  12.481284  11.381530  11.488812   8.925076
    30  H    8.381609  13.967401  13.202740  12.604859  10.840712
    31  H    6.763954  11.064472  10.988785   9.220814   9.047773
    32  H    8.459234  13.344510  13.024929  11.622276  10.882397
    33  H    5.425886   6.737754   7.543720   4.483058   6.575686
                   26         27         28         29         30
    26  H    0.000000
    27  H    3.071357   0.000000
    28  H    2.118888   3.842612   0.000000
    29  H    4.570876   5.559140   2.455844   0.000000
    30  H    6.153745   5.880312   4.292050   2.487795   0.000000
    31  H    4.643602   2.319717   4.307798   4.956559   4.298713
    32  H    6.172813   4.656980   4.964866   4.302552   2.490087
    33  H    4.957021   3.128222   6.545901   8.582912   8.995863
                   31         32         33
    31  H    0.000000
    32  H    2.473350   0.000000
    33  H    5.052548   7.525172   0.000000
 Stoichiometry    C18H12O3
 Framework group  CS[SG(C18H12O3)]
 Deg. of freedom    63
 Full point group                 CS      NOp   2
 Largest Abelian subgroup         CS      NOp   2
 Largest concise Abelian subgroup C1      NOp   1
                         Standard orientation:                         
 ---------------------------------------------------------------------
 Center     Atomic      Atomic             Coordinates (Angstroms)
 Number     Number       Type             X           Y           Z
 ---------------------------------------------------------------------
      1          6           0       -0.403599    5.517400   -0.000000
      2          6           0       -1.712449    5.025260   -0.000000
      3          6           0       -1.949029    3.648780   -0.000000
      4          6           0       -0.877049    2.754570   -0.000000
      5          6           0        0.438601    3.253630   -0.000000
      6          6           0        0.674041    4.632080   -0.000000
      7          6           0        1.560970    2.303389   -0.000000
      8          6           0        1.268370    0.847919   -0.000000
      9          6           0       -0.000000    0.323710   -0.000000
     10          6           0       -1.145340    1.280410   -0.000000
     11          6           0       -0.350050   -1.083970    0.000000
     12          6           0        0.490409   -2.148180    0.000000
     13          6           0        0.092699   -3.557220    0.000000
     14          6           0        1.105539   -4.537301    0.000000
     15          6           0        0.797309   -5.896491    0.000000
     16          6           0       -0.536201   -6.310310    0.000000
     17          6           0       -1.248691   -3.994610    0.000000
     18          6           0       -1.555961   -5.351510    0.000000
     19          8           0        2.376400    0.093219   -0.000000
     20          8           0        2.751180    2.639299   -0.000000
     21          8           0       -2.305830    0.873580   -0.000000
     22          1           0       -0.224979    6.588060   -0.000000
     23          1           0       -2.550499    5.715440   -0.000000
     24          1           0        1.697821    4.990369   -0.000000
     25          1           0       -2.958019    3.251720   -0.000000
     26          1           0       -1.423250   -1.248060    0.000000
     27          1           0        1.560930   -1.974631    0.000000
     28          1           0       -2.056751   -3.270030    0.000000
     29          1           0       -2.595731   -5.666000    0.000000
     30          1           0       -0.781492   -7.368250    0.000000
     31          1           0        2.145089   -4.219591    0.000000
     32          1           0        1.597099   -6.631471    0.000000
     33          1           0        3.118370    0.738329   -0.000000
 ---------------------------------------------------------------------
 Rotational constants (GHZ):           0.8567295           0.1366807           0.1178752
 Leave Link  202 at Tue Jul 26 21:01:11 2022, MaxMem=   939524096 cpu:               0.2 elap:               0.1
 (Enter /scr/programas/g16/l301.exe)
 General basis read from cards:  (5D, 7F)
 Centers:      22     23     24     25     26     27     28     29     30     31
 Centers:      32     33      1      2      3      4      5      6      7      8
 Centers:       9     10     11     12     13     14     15     16     17     18
 Centers:      19     20     21
 6-31+g(d,p)
 ****
 Ernie: Thresh=  0.10000D-02 Tol=  0.10000D-05 Strict=F.
 AO basis set in the form of general basis input (Overlap normalization):
      1 0
 S   6 1.00       0.000000000000
      0.3047524880D+04  0.1834737132D-02
      0.4573695180D+03  0.1403732281D-01
      0.1039486850D+03  0.6884262226D-01
      0.2921015530D+02  0.2321844432D+00
      0.9286662960D+01  0.4679413484D+00
      0.3163926960D+01  0.3623119853D+00
 SP   3 1.00       0.000000000000
      0.7868272350D+01 -0.1193324198D+00  0.6899906659D-01
      0.1881288540D+01 -0.1608541517D+00  0.3164239610D+00
      0.5442492580D+00  0.1143456438D+01  0.7443082909D+00
 SP   1 1.00       0.000000000000
      0.1687144782D+00  0.1000000000D+01  0.1000000000D+01
 SP   1 1.00       0.000000000000
      0.4380000000D-01  0.1000000000D+01  0.1000000000D+01
 D   1 1.00       0.000000000000
      0.8000000000D+00  0.1000000000D+01
 ****
      2 0
 S   6 1.00       0.000000000000
      0.3047524880D+04  0.1834737132D-02
      0.4573695180D+03  0.1403732281D-01
      0.1039486850D+03  0.6884262226D-01
      0.2921015530D+02  0.2321844432D+00
      0.9286662960D+01  0.4679413484D+00
      0.3163926960D+01  0.3623119853D+00
 SP   3 1.00       0.000000000000
      0.7868272350D+01 -0.1193324198D+00  0.6899906659D-01
      0.1881288540D+01 -0.1608541517D+00  0.3164239610D+00
      0.5442492580D+00  0.1143456438D+01  0.7443082909D+00
 SP   1 1.00       0.000000000000
      0.1687144782D+00  0.1000000000D+01  0.1000000000D+01
 SP   1 1.00       0.000000000000
      0.4380000000D-01  0.1000000000D+01  0.1000000000D+01
 D   1 1.00       0.000000000000
      0.8000000000D+00  0.1000000000D+01
 ****
      3 0
 S   6 1.00       0.000000000000
      0.3047524880D+04  0.1834737132D-02
      0.4573695180D+03  0.1403732281D-01
      0.1039486850D+03  0.6884262226D-01
      0.2921015530D+02  0.2321844432D+00
      0.9286662960D+01  0.4679413484D+00
      0.3163926960D+01  0.3623119853D+00
 SP   3 1.00       0.000000000000
      0.7868272350D+01 -0.1193324198D+00  0.6899906659D-01
      0.1881288540D+01 -0.1608541517D+00  0.3164239610D+00
      0.5442492580D+00  0.1143456438D+01  0.7443082909D+00
 SP   1 1.00       0.000000000000
      0.1687144782D+00  0.1000000000D+01  0.1000000000D+01
 SP   1 1.00       0.000000000000
      0.4380000000D-01  0.1000000000D+01  0.1000000000D+01
 D   1 1.00       0.000000000000
      0.8000000000D+00  0.1000000000D+01
 ****
      4 0
 S   6 1.00       0.000000000000
      0.3047524880D+04  0.1834737132D-02
      0.4573695180D+03  0.1403732281D-01
      0.1039486850D+03  0.6884262226D-01
      0.2921015530D+02  0.2321844432D+00
      0.9286662960D+01  0.4679413484D+00
      0.3163926960D+01  0.3623119853D+00
 SP   3 1.00       0.000000000000
      0.7868272350D+01 -0.1193324198D+00  0.6899906659D-01
      0.1881288540D+01 -0.1608541517D+00  0.3164239610D+00
      0.5442492580D+00  0.1143456438D+01  0.7443082909D+00
 SP   1 1.00       0.000000000000
      0.1687144782D+00  0.1000000000D+01  0.1000000000D+01
 SP   1 1.00       0.000000000000
      0.4380000000D-01  0.1000000000D+01  0.1000000000D+01
 D   1 1.00       0.000000000000
      0.8000000000D+00  0.1000000000D+01
 ****
      5 0
 S   6 1.00       0.000000000000
      0.3047524880D+04  0.1834737132D-02
      0.4573695180D+03  0.1403732281D-01
      0.1039486850D+03  0.6884262226D-01
      0.2921015530D+02  0.2321844432D+00
      0.9286662960D+01  0.4679413484D+00
      0.3163926960D+01  0.3623119853D+00
 SP   3 1.00       0.000000000000
      0.7868272350D+01 -0.1193324198D+00  0.6899906659D-01
      0.1881288540D+01 -0.1608541517D+00  0.3164239610D+00
      0.5442492580D+00  0.1143456438D+01  0.7443082909D+00
 SP   1 1.00       0.000000000000
      0.1687144782D+00  0.1000000000D+01  0.1000000000D+01
 SP   1 1.00       0.000000000000
      0.4380000000D-01  0.1000000000D+01  0.1000000000D+01
 D   1 1.00       0.000000000000
      0.8000000000D+00  0.1000000000D+01
 ****
      6 0
 S   6 1.00       0.000000000000
      0.3047524880D+04  0.1834737132D-02
      0.4573695180D+03  0.1403732281D-01
      0.1039486850D+03  0.6884262226D-01
      0.2921015530D+02  0.2321844432D+00
      0.9286662960D+01  0.4679413484D+00
      0.3163926960D+01  0.3623119853D+00
 SP   3 1.00       0.000000000000
      0.7868272350D+01 -0.1193324198D+00  0.6899906659D-01
      0.1881288540D+01 -0.1608541517D+00  0.3164239610D+00
      0.5442492580D+00  0.1143456438D+01  0.7443082909D+00
 SP   1 1.00       0.000000000000
      0.1687144782D+00  0.1000000000D+01  0.1000000000D+01
 SP   1 1.00       0.000000000000
      0.4380000000D-01  0.1000000000D+01  0.1000000000D+01
 D   1 1.00       0.000000000000
      0.8000000000D+00  0.1000000000D+01
 ****
      7 0
 S   6 1.00       0.000000000000
      0.3047524880D+04  0.1834737132D-02
      0.4573695180D+03  0.1403732281D-01
      0.1039486850D+03  0.6884262226D-01
      0.2921015530D+02  0.2321844432D+00
      0.9286662960D+01  0.4679413484D+00
      0.3163926960D+01  0.3623119853D+00
 SP   3 1.00       0.000000000000
      0.7868272350D+01 -0.1193324198D+00  0.6899906659D-01
      0.1881288540D+01 -0.1608541517D+00  0.3164239610D+00
      0.5442492580D+00  0.1143456438D+01  0.7443082909D+00
 SP   1 1.00       0.000000000000
      0.1687144782D+00  0.1000000000D+01  0.1000000000D+01
 SP   1 1.00       0.000000000000
      0.4380000000D-01  0.1000000000D+01  0.1000000000D+01
 D   1 1.00       0.000000000000
      0.8000000000D+00  0.1000000000D+01
 ****
      8 0
 S   6 1.00       0.000000000000
      0.3047524880D+04  0.1834737132D-02
      0.4573695180D+03  0.1403732281D-01
      0.1039486850D+03  0.6884262226D-01
      0.2921015530D+02  0.2321844432D+00
      0.9286662960D+01  0.4679413484D+00
      0.3163926960D+01  0.3623119853D+00
 SP   3 1.00       0.000000000000
      0.7868272350D+01 -0.1193324198D+00  0.6899906659D-01
      0.1881288540D+01 -0.1608541517D+00  0.3164239610D+00
      0.5442492580D+00  0.1143456438D+01  0.7443082909D+00
 SP   1 1.00       0.000000000000
      0.1687144782D+00  0.1000000000D+01  0.1000000000D+01
 SP   1 1.00       0.000000000000
      0.4380000000D-01  0.1000000000D+01  0.1000000000D+01
 D   1 1.00       0.000000000000
      0.8000000000D+00  0.1000000000D+01
 ****
      9 0
 S   6 1.00       0.000000000000
      0.3047524880D+04  0.1834737132D-02
      0.4573695180D+03  0.1403732281D-01
      0.1039486850D+03  0.6884262226D-01
      0.2921015530D+02  0.2321844432D+00
      0.9286662960D+01  0.4679413484D+00
      0.3163926960D+01  0.3623119853D+00
 SP   3 1.00       0.000000000000
      0.7868272350D+01 -0.1193324198D+00  0.6899906659D-01
      0.1881288540D+01 -0.1608541517D+00  0.3164239610D+00
      0.5442492580D+00  0.1143456438D+01  0.7443082909D+00
 SP   1 1.00       0.000000000000
      0.1687144782D+00  0.1000000000D+01  0.1000000000D+01
 SP   1 1.00       0.000000000000
      0.4380000000D-01  0.1000000000D+01  0.1000000000D+01
 D   1 1.00       0.000000000000
      0.8000000000D+00  0.1000000000D+01
 ****
     10 0
 S   6 1.00       0.000000000000
      0.3047524880D+04  0.1834737132D-02
      0.4573695180D+03  0.1403732281D-01
      0.1039486850D+03  0.6884262226D-01
      0.2921015530D+02  0.2321844432D+00
      0.9286662960D+01  0.4679413484D+00
      0.3163926960D+01  0.3623119853D+00
 SP   3 1.00       0.000000000000
      0.7868272350D+01 -0.1193324198D+00  0.6899906659D-01
      0.1881288540D+01 -0.1608541517D+00  0.3164239610D+00
      0.5442492580D+00  0.1143456438D+01  0.7443082909D+00
 SP   1 1.00       0.000000000000
      0.1687144782D+00  0.1000000000D+01  0.1000000000D+01
 SP   1 1.00       0.000000000000
      0.4380000000D-01  0.1000000000D+01  0.1000000000D+01
 D   1 1.00       0.000000000000
      0.8000000000D+00  0.1000000000D+01
 ****
     11 0
 S   6 1.00       0.000000000000
      0.3047524880D+04  0.1834737132D-02
      0.4573695180D+03  0.1403732281D-01
      0.1039486850D+03  0.6884262226D-01
      0.2921015530D+02  0.2321844432D+00
      0.9286662960D+01  0.4679413484D+00
      0.3163926960D+01  0.3623119853D+00
 SP   3 1.00       0.000000000000
      0.7868272350D+01 -0.1193324198D+00  0.6899906659D-01
      0.1881288540D+01 -0.1608541517D+00  0.3164239610D+00
      0.5442492580D+00  0.1143456438D+01  0.7443082909D+00
 SP   1 1.00       0.000000000000
      0.1687144782D+00  0.1000000000D+01  0.1000000000D+01
 SP   1 1.00       0.000000000000
      0.4380000000D-01  0.1000000000D+01  0.1000000000D+01
 D   1 1.00       0.000000000000
      0.8000000000D+00  0.1000000000D+01
 ****
     12 0
 S   6 1.00       0.000000000000
      0.3047524880D+04  0.1834737132D-02
      0.4573695180D+03  0.1403732281D-01
      0.1039486850D+03  0.6884262226D-01
      0.2921015530D+02  0.2321844432D+00
      0.9286662960D+01  0.4679413484D+00
      0.3163926960D+01  0.3623119853D+00
 SP   3 1.00       0.000000000000
      0.7868272350D+01 -0.1193324198D+00  0.6899906659D-01
      0.1881288540D+01 -0.1608541517D+00  0.3164239610D+00
      0.5442492580D+00  0.1143456438D+01  0.7443082909D+00
 SP   1 1.00       0.000000000000
      0.1687144782D+00  0.1000000000D+01  0.1000000000D+01
 SP   1 1.00       0.000000000000
      0.4380000000D-01  0.1000000000D+01  0.1000000000D+01
 D   1 1.00       0.000000000000
      0.8000000000D+00  0.1000000000D+01
 ****
     13 0
 S   6 1.00       0.000000000000
      0.3047524880D+04  0.1834737132D-02
      0.4573695180D+03  0.1403732281D-01
      0.1039486850D+03  0.6884262226D-01
      0.2921015530D+02  0.2321844432D+00
      0.9286662960D+01  0.4679413484D+00
      0.3163926960D+01  0.3623119853D+00
 SP   3 1.00       0.000000000000
      0.7868272350D+01 -0.1193324198D+00  0.6899906659D-01
      0.1881288540D+01 -0.1608541517D+00  0.3164239610D+00
      0.5442492580D+00  0.1143456438D+01  0.7443082909D+00
 SP   1 1.00       0.000000000000
      0.1687144782D+00  0.1000000000D+01  0.1000000000D+01
 SP   1 1.00       0.000000000000
      0.4380000000D-01  0.1000000000D+01  0.1000000000D+01
 D   1 1.00       0.000000000000
      0.8000000000D+00  0.1000000000D+01
 ****
     14 0
 S   6 1.00       0.000000000000
      0.3047524880D+04  0.1834737132D-02
      0.4573695180D+03  0.1403732281D-01
      0.1039486850D+03  0.6884262226D-01
      0.2921015530D+02  0.2321844432D+00
      0.9286662960D+01  0.4679413484D+00
      0.3163926960D+01  0.3623119853D+00
 SP   3 1.00       0.000000000000
      0.7868272350D+01 -0.1193324198D+00  0.6899906659D-01
      0.1881288540D+01 -0.1608541517D+00  0.3164239610D+00
      0.5442492580D+00  0.1143456438D+01  0.7443082909D+00
 SP   1 1.00       0.000000000000
      0.1687144782D+00  0.1000000000D+01  0.1000000000D+01
 SP   1 1.00       0.000000000000
      0.4380000000D-01  0.1000000000D+01  0.1000000000D+01
 D   1 1.00       0.000000000000
      0.8000000000D+00  0.1000000000D+01
 ****
     15 0
 S   6 1.00       0.000000000000
      0.3047524880D+04  0.1834737132D-02
      0.4573695180D+03  0.1403732281D-01
      0.1039486850D+03  0.6884262226D-01
      0.2921015530D+02  0.2321844432D+00
      0.9286662960D+01  0.4679413484D+00
      0.3163926960D+01  0.3623119853D+00
 SP   3 1.00       0.000000000000
      0.7868272350D+01 -0.1193324198D+00  0.6899906659D-01
      0.1881288540D+01 -0.1608541517D+00  0.3164239610D+00
      0.5442492580D+00  0.1143456438D+01  0.7443082909D+00
 SP   1 1.00       0.000000000000
      0.1687144782D+00  0.1000000000D+01  0.1000000000D+01
 SP   1 1.00       0.000000000000
      0.4380000000D-01  0.1000000000D+01  0.1000000000D+01
 D   1 1.00       0.000000000000
      0.8000000000D+00  0.1000000000D+01
 ****
     16 0
 S   6 1.00       0.000000000000
      0.3047524880D+04  0.1834737132D-02
      0.4573695180D+03  0.1403732281D-01
      0.1039486850D+03  0.6884262226D-01
      0.2921015530D+02  0.2321844432D+00
      0.9286662960D+01  0.4679413484D+00
      0.3163926960D+01  0.3623119853D+00
 SP   3 1.00       0.000000000000
      0.7868272350D+01 -0.1193324198D+00  0.6899906659D-01
      0.1881288540D+01 -0.1608541517D+00  0.3164239610D+00
      0.5442492580D+00  0.1143456438D+01  0.7443082909D+00
 SP   1 1.00       0.000000000000
      0.1687144782D+00  0.1000000000D+01  0.1000000000D+01
 SP   1 1.00       0.000000000000
      0.4380000000D-01  0.1000000000D+01  0.1000000000D+01
 D   1 1.00       0.000000000000
      0.8000000000D+00  0.1000000000D+01
 ****
     17 0
 S   6 1.00       0.000000000000
      0.3047524880D+04  0.1834737132D-02
      0.4573695180D+03  0.1403732281D-01
      0.1039486850D+03  0.6884262226D-01
      0.2921015530D+02  0.2321844432D+00
      0.9286662960D+01  0.4679413484D+00
      0.3163926960D+01  0.3623119853D+00
 SP   3 1.00       0.000000000000
      0.7868272350D+01 -0.1193324198D+00  0.6899906659D-01
      0.1881288540D+01 -0.1608541517D+00  0.3164239610D+00
      0.5442492580D+00  0.1143456438D+01  0.7443082909D+00
 SP   1 1.00       0.000000000000
      0.1687144782D+00  0.1000000000D+01  0.1000000000D+01
 SP   1 1.00       0.000000000000
      0.4380000000D-01  0.1000000000D+01  0.1000000000D+01
 D   1 1.00       0.000000000000
      0.8000000000D+00  0.1000000000D+01
 ****
     18 0
 S   6 1.00       0.000000000000
      0.3047524880D+04  0.1834737132D-02
      0.4573695180D+03  0.1403732281D-01
      0.1039486850D+03  0.6884262226D-01
      0.2921015530D+02  0.2321844432D+00
      0.9286662960D+01  0.4679413484D+00
      0.3163926960D+01  0.3623119853D+00
 SP   3 1.00       0.000000000000
      0.7868272350D+01 -0.1193324198D+00  0.6899906659D-01
      0.1881288540D+01 -0.1608541517D+00  0.3164239610D+00
      0.5442492580D+00  0.1143456438D+01  0.7443082909D+00
 SP   1 1.00       0.000000000000
      0.1687144782D+00  0.1000000000D+01  0.1000000000D+01
 SP   1 1.00       0.000000000000
      0.4380000000D-01  0.1000000000D+01  0.1000000000D+01
 D   1 1.00       0.000000000000
      0.8000000000D+00  0.1000000000D+01
 ****
     19 0
 S   6 1.00       0.000000000000
      0.5484671660D+04  0.1831074430D-02
      0.8252349460D+03  0.1395017220D-01
      0.1880469580D+03  0.6844507810D-01
      0.5296450000D+02  0.2327143360D+00
      0.1689757040D+02  0.4701928980D+00
      0.5799635340D+01  0.3585208530D+00
 SP   3 1.00       0.000000000000
      0.1553961625D+02 -0.1107775495D+00  0.7087426823D-01
      0.3599933586D+01 -0.1480262627D+00  0.3397528391D+00
      0.1013761750D+01  0.1130767015D+01  0.7271585773D+00
 SP   1 1.00       0.000000000000
      0.2700058226D+00  0.1000000000D+01  0.1000000000D+01
 SP   1 1.00       0.000000000000
      0.8450000000D-01  0.1000000000D+01  0.1000000000D+01
 D   1 1.00       0.000000000000
      0.8000000000D+00  0.1000000000D+01
 ****
     20 0
 S   6 1.00       0.000000000000
      0.5484671660D+04  0.1831074430D-02
      0.8252349460D+03  0.1395017220D-01
      0.1880469580D+03  0.6844507810D-01
      0.5296450000D+02  0.2327143360D+00
      0.1689757040D+02  0.4701928980D+00
      0.5799635340D+01  0.3585208530D+00
 SP   3 1.00       0.000000000000
      0.1553961625D+02 -0.1107775495D+00  0.7087426823D-01
      0.3599933586D+01 -0.1480262627D+00  0.3397528391D+00
      0.1013761750D+01  0.1130767015D+01  0.7271585773D+00
 SP   1 1.00       0.000000000000
      0.2700058226D+00  0.1000000000D+01  0.1000000000D+01
 SP   1 1.00       0.000000000000
      0.8450000000D-01  0.1000000000D+01  0.1000000000D+01
 D   1 1.00       0.000000000000
      0.8000000000D+00  0.1000000000D+01
 ****
     21 0
 S   6 1.00       0.000000000000
      0.5484671660D+04  0.1831074430D-02
      0.8252349460D+03  0.1395017220D-01
      0.1880469580D+03  0.6844507810D-01
      0.5296450000D+02  0.2327143360D+00
      0.1689757040D+02  0.4701928980D+00
      0.5799635340D+01  0.3585208530D+00
 SP   3 1.00       0.000000000000
      0.1553961625D+02 -0.1107775495D+00  0.7087426823D-01
      0.3599933586D+01 -0.1480262627D+00  0.3397528391D+00
      0.1013761750D+01  0.1130767015D+01  0.7271585773D+00
 SP   1 1.00       0.000000000000
      0.2700058226D+00  0.1000000000D+01  0.1000000000D+01
 SP   1 1.00       0.000000000000
      0.8450000000D-01  0.1000000000D+01  0.1000000000D+01
 D   1 1.00       0.000000000000
      0.8000000000D+00  0.1000000000D+01
 ****
     22 0
 S   3 1.00       0.000000000000
      0.1873113696D+02  0.3349460434D-01
      0.2825394365D+01  0.2347269535D+00
      0.6401216923D+00  0.8137573261D+00
 S   1 1.00       0.000000000000
      0.1612777588D+00  0.1000000000D+01
 P   1 1.00       0.000000000000
      0.1100000000D+01  0.1000000000D+01
 ****
     23 0
 S   3 1.00       0.000000000000
      0.1873113696D+02  0.3349460434D-01
      0.2825394365D+01  0.2347269535D+00
      0.6401216923D+00  0.8137573261D+00
 S   1 1.00       0.000000000000
      0.1612777588D+00  0.1000000000D+01
 P   1 1.00       0.000000000000
      0.1100000000D+01  0.1000000000D+01
 ****
     24 0
 S   3 1.00       0.000000000000
      0.1873113696D+02  0.3349460434D-01
      0.2825394365D+01  0.2347269535D+00
      0.6401216923D+00  0.8137573261D+00
 S   1 1.00       0.000000000000
      0.1612777588D+00  0.1000000000D+01
 P   1 1.00       0.000000000000
      0.1100000000D+01  0.1000000000D+01
 ****
     25 0
 S   3 1.00       0.000000000000
      0.1873113696D+02  0.3349460434D-01
      0.2825394365D+01  0.2347269535D+00
      0.6401216923D+00  0.8137573261D+00
 S   1 1.00       0.000000000000
      0.1612777588D+00  0.1000000000D+01
 P   1 1.00       0.000000000000
      0.1100000000D+01  0.1000000000D+01
 ****
     26 0
 S   3 1.00       0.000000000000
      0.1873113696D+02  0.3349460434D-01
      0.2825394365D+01  0.2347269535D+00
      0.6401216923D+00  0.8137573261D+00
 S   1 1.00       0.000000000000
      0.1612777588D+00  0.1000000000D+01
 P   1 1.00       0.000000000000
      0.1100000000D+01  0.1000000000D+01
 ****
     27 0
 S   3 1.00       0.000000000000
      0.1873113696D+02  0.3349460434D-01
      0.2825394365D+01  0.2347269535D+00
      0.6401216923D+00  0.8137573261D+00
 S   1 1.00       0.000000000000
      0.1612777588D+00  0.1000000000D+01
 P   1 1.00       0.000000000000
      0.1100000000D+01  0.1000000000D+01
 ****
     28 0
 S   3 1.00       0.000000000000
      0.1873113696D+02  0.3349460434D-01
      0.2825394365D+01  0.2347269535D+00
      0.6401216923D+00  0.8137573261D+00
 S   1 1.00       0.000000000000
      0.1612777588D+00  0.1000000000D+01
 P   1 1.00       0.000000000000
      0.1100000000D+01  0.1000000000D+01
 ****
     29 0
 S   3 1.00       0.000000000000
      0.1873113696D+02  0.3349460434D-01
      0.2825394365D+01  0.2347269535D+00
      0.6401216923D+00  0.8137573261D+00
 S   1 1.00       0.000000000000
      0.1612777588D+00  0.1000000000D+01
 P   1 1.00       0.000000000000
      0.1100000000D+01  0.1000000000D+01
 ****
     30 0
 S   3 1.00       0.000000000000
      0.1873113696D+02  0.3349460434D-01
      0.2825394365D+01  0.2347269535D+00
      0.6401216923D+00  0.8137573261D+00
 S   1 1.00       0.000000000000
      0.1612777588D+00  0.1000000000D+01
 P   1 1.00       0.000000000000
      0.1100000000D+01  0.1000000000D+01
 ****
     31 0
 S   3 1.00       0.000000000000
      0.1873113696D+02  0.3349460434D-01
      0.2825394365D+01  0.2347269535D+00
      0.6401216923D+00  0.8137573261D+00
 S   1 1.00       0.000000000000
      0.1612777588D+00  0.1000000000D+01
 P   1 1.00       0.000000000000
      0.1100000000D+01  0.1000000000D+01
 ****
     32 0
 S   3 1.00       0.000000000000
      0.1873113696D+02  0.3349460434D-01
      0.2825394365D+01  0.2347269535D+00
      0.6401216923D+00  0.8137573261D+00
 S   1 1.00       0.000000000000
      0.1612777588D+00  0.1000000000D+01
 P   1 1.00       0.000000000000
      0.1100000000D+01  0.1000000000D+01
 ****
     33 0
 S   3 1.00       0.000000000000
      0.1873113696D+02  0.3349460434D-01
      0.2825394365D+01  0.2347269535D+00
      0.6401216923D+00  0.8137573261D+00
 S   1 1.00       0.000000000000
      0.1612777588D+00  0.1000000000D+01
 P   1 1.00       0.000000000000
      0.1100000000D+01  0.1000000000D+01
 ****

 There are   342 symmetry adapted cartesian basis functions of A'  symmetry.
 There are   117 symmetry adapted cartesian basis functions of A"  symmetry.
 There are   321 symmetry adapted basis functions of A'  symmetry.
 There are   117 symmetry adapted basis functions of A"  symmetry.
   438 basis functions,   756 primitive gaussians,   459 cartesian basis functions
    72 alpha electrons       72 beta electrons
       nuclear repulsion energy      1451.7908773902 Hartrees.
 IExCor=20419 DFT=T Ex+Corr=CAM-B3LYP ExCW=0 ScaHFX=  1.000000
 ScaDFX=  1.000000  1.000000  1.000000  0.810000 ScalE2=  1.000000  1.000000
 IRadAn=      5 IRanWt=     -1 IRanGd=            0 ICorTp=0 IEmpDi=  4
 HFx  wShort=  0.000000 wLong=  0.330000 cFull=  0.190000 cShort=  0.000000 cLong=  0.460000
 DFx  wShort=  0.000000 wLong=  0.330000 cFull=  0.190000 cShort=  0.000000 cLong=  0.460000
 NAtoms=   33 NActive=   33 NUniq=   33 SFac= 1.00D+00 NAtFMM=   60 NAOKFM=F Big=F
 Integral buffers will be    131072 words long.
 Raffenetti 2 integral format.
 Two-electron integral symmetry is turned on.
 Using the following non-standard input for PCM:
 --- end of non-standard input.
 ------------------------------------------------------------------------------
 Polarizable Continuum Model (PCM)
 =================================
 Model                : PCM.
 Atomic radii         : UFF (Universal Force Field).
 Polarization charges : Total charges.
 Charge compensation  : None.
 Solution method      : On-the-fly selection.
 Cavity type          : Scaled VdW (van der Waals Surface) (Alpha=1.100).
 Cavity algorithm     : GePol (No added spheres)
                        Default sphere list used, NSphG=   33.
                        Lebedev-Laikov grids with approx.  5.0 points / Ang**2.
                        Smoothing algorithm: York/Karplus (Gamma=1.0000).
                        Polarization charges: spherical gaussians, with
                                              point-specific exponents (IZeta= 3).
                        Self-potential: point-specific (ISelfS= 7).
                        Self-field    : sphere-specific E.n sum rule (ISelfD= 2).
 Solvent              : Chloroform, Eps=   4.711300 Eps(inf)=   2.090627
 ------------------------------------------------------------------------------
 GePol: Number of generator spheres                  =      33
 GePol: Total number of spheres                      =      33
 GePol: Number of exposed spheres                    =      33 (100.00%)
 GePol: Number of points                             =    2701
 GePol: Average weight of points                     =       0.12
 GePol: Minimum weight of points                     =   0.15D-11
 GePol: Maximum weight of points                     =    0.20577
 GePol: Number of points with low weight             =     212
 GePol: Fraction of low-weight points (<1% of avg)   =       7.85%
 GePol: Cavity surface area                          =    335.942 Ang**2
 GePol: Cavity volume                                =    368.686 Ang**3
 Leave Link  301 at Tue Jul 26 21:01:11 2022, MaxMem=   939524096 cpu:               0.3 elap:               0.1
 (Enter /scr/programas/g16/l302.exe)
 NPDir=0 NMtPBC=     1 NCelOv=     1 NCel=       1 NClECP=     1 NCelD=      1
         NCelK=      1 NCelE2=     1 NClLst=     1 CellRange=     0.0.
 One-electron integrals computed using PRISM.
 One-electron integral symmetry used in STVInt
 NBasis=   438 RedAO= T EigKep=  1.43D-06  NBF=   321   117
 NBsUse=   432 1.00D-06 EigRej=  8.47D-07 NBFU=   315   117
 Precomputing XC quadrature grid using
 IXCGrd= 4 IRadAn=           5 IRanWt=          -1 IRanGd=           0 AccXCQ= 0.00D+00.
 Generated NRdTot=       0 NPtTot=           0 NUsed=           0 NTot=          32
 NSgBfM=   451   451   451   451   451 MxSgAt=    33 MxSgA2=    33.
 Leave Link  302 at Tue Jul 26 21:01:13 2022, MaxMem=   939524096 cpu:               6.2 elap:               1.8
 (Enter /scr/programas/g16/l303.exe)
 DipDrv:  MaxL=1.
 Leave Link  303 at Tue Jul 26 21:01:13 2022, MaxMem=   939524096 cpu:               0.6 elap:               0.2
 (Enter /scr/programas/g16/l401.exe)
 ExpMin= 4.38D-02 ExpMax= 5.48D+03 ExpMxC= 8.25D+02 IAcc=3 IRadAn=         5 AccDes= 0.00D+00
 Harris functional with IExCor=20419 and IRadAn=       5 diagonalized for initial guess.
 HarFok:  IExCor=20419 AccDes= 0.00D+00 IRadAn=         5 IDoV= 1 UseB2=F ITyADJ=14
 ICtDFT=  3500011 ScaDFX=  1.000000  1.000000  1.000000  1.000000
 FoFCou: FMM=F IPFlag=           0 FMFlag=      100000 FMFlg1=           0
         NFxFlg=           0 DoJE=T BraDBF=F KetDBF=T FulRan=T
         wScrn=  0.000000 ICntrl=       500 IOpCl=  0 I1Cent=   200000004 NGrid=           0
         NMat0=    1 NMatS0=      1 NMatT0=    0 NMatD0=    1 NMtDS0=    0 NMtDT0=    0
 Petite list used in FoFCou.
 Harris En= -883.400993398008    
 JPrj=0 DoOrth=F DoCkMO=F.
 Initial guess orbital symmetries:
       Occupied  (A') (A') (A') (A') (A') (A') (A') (A') (A') (A')
                 (A') (A') (A') (A') (A') (A') (A') (A') (A') (A')
                 (A') (A') (A') (A') (A') (A') (A') (A') (A') (A')
                 (A') (A') (A') (A') (A') (A') (A') (A') (A') (A')
                 (A') (A') (A') (A') (A') (A') (A') (A') (A') (A')
                 (A') (A") (A') (A') (A") (A') (A") (A') (A') (A")
                 (A') (A') (A") (A') (A") (A") (A") (A") (A") (A')
                 (A') (A")
       Virtual   (A") (A") (A") (A") (A') (A') (A") (A') (A') (A')
                 (A') (A") (A') (A") (A') (A") (A') (A') (A') (A")
                 (A") (A') (A") (A') (A') (A") (A") (A') (A') (A")
                 (A") (A') (A') (A") (A") (A") (A') (A') (A") (A')
                 (A') (A") (A') (A') (A") (A') (A") (A') (A') (A')
                 (A") (A') (A') (A') (A') (A') (A') (A") (A") (A')
                 (A') (A") (A') (A') (A") (A') (A") (A') (A') (A')
                 (A') (A') (A') (A') (A') (A') (A') (A') (A') (A')
                 (A') (A") (A') (A') (A') (A') (A') (A") (A') (A')
                 (A') (A') (A') (A') (A") (A') (A') (A') (A') (A')
                 (A') (A') (A') (A') (A') (A') (A') (A') (A') (A')
                 (A') (A') (A') (A') (A') (A') (A') (A') (A') (A')
                 (A') (A') (A") (A') (A") (A') (A") (A') (A') (A')
                 (A") (A") (A') (A") (A') (A") (A") (A') (A') (A")
                 (A') (A') (A") (A') (A") (A") (A') (A") (A') (A")
                 (A') (A") (A") (A") (A') (A') (A') (A') (A') (A')
                 (A') (A') (A") (A') (A') (A') (A') (A') (A') (A')
                 (A') (A') (A') (A') (A') (A') (A') (A') (A') (A')
                 (A') (A') (A') (A') (A') (A") (A') (A") (A") (A')
                 (A') (A") (A') (A") (A") (A') (A") (A') (A') (A")
                 (A') (A') (A") (A") (A') (A') (A') (A') (A") (A')
                 (A") (A") (A") (A") (A') (A") (A") (A') (A") (A')
                 (A') (A") (A') (A') (A') (A') (A') (A') (A") (A')
                 (A') (A') (A") (A") (A') (A") (A') (A') (A') (A")
                 (A') (A') (A") (A') (A') (A') (A') (A") (A') (A')
                 (A') (A') (A') (A') (A") (A') (A") (A') (A') (A")
                 (A") (A') (A") (A') (A') (A') (A') (A') (A') (A')
                 (A') (A") (A') (A') (A") (A') (A") (A") (A") (A")
                 (A") (A') (A') (A") (A') (A') (A') (A') (A") (A")
                 (A") (A") (A') (A') (A") (A') (A') (A') (A') (A")
                 (A') (A') (A") (A') (A") (A') (A") (A') (A") (A')
                 (A") (A') (A") (A") (A') (A") (A') (A') (A') (A")
                 (A') (A") (A") (A") (A') (A') (A') (A') (A') (A')
                 (A') (A') (A') (A') (A') (A') (A') (A') (A') (A')
                 (A') (A') (A') (A') (A') (A') (A') (A') (A') (A')
                 (A') (A') (A') (A') (A') (A') (A') (A') (A') (A')
 The electronic state of the initial guess is 1-A'.
 Leave Link  401 at Tue Jul 26 21:01:20 2022, MaxMem=   939524096 cpu:              26.9 elap:               7.2
 (Enter /scr/programas/g16/l502.exe)
 Integral symmetry usage will be decided dynamically.
 Closed shell SCF:
 Using DIIS extrapolation, IDIIS=  1040.
 NGot=   939524096 LenX=   939093723 LenY=   938882583
 Requested convergence on RMS density matrix=1.00D-08 within 200 cycles.
 Requested convergence on MAX density matrix=1.00D-06.
 Requested convergence on             energy=1.00D-06.
 No special actions if energy rises.
 Fock matrices will be formed incrementally for  20 cycles.

 Cycle   1  Pass 1  IDiag  1:
 FoFJK:  IHMeth= 1 ICntrl=       0 DoSepK=T KAlg= 0 I1Cent=           0 FoldK=F
 IRaf=         1 NMat=       1 IRICut=       1 DoRegI=T DoRafI=F ISym2E= 1 IDoP0=0 IntGTp=1.
 FoFCou: FMM=F IPFlag=           0 FMFlag=      100000 FMFlg1=           0
         NFxFlg=           0 DoJE=T BraDBF=F KetDBF=F FulRan=T
         wScrn=  0.000000 ICntrl=       500 IOpCl=  0 I1Cent=           0 NGrid=           0
         NMat0=    1 NMatS0=      1 NMatT0=    0 NMatD0=    1 NMtDS0=    0 NMtDT0=    0
 Petite list used in FoFCou.
 Inv3:  Mode=1 IEnd=    21886203.
 Iteration    1 A*A^-1 deviation from unit magnitude is 9.21D-15 for   1067.
 Iteration    1 A*A^-1 deviation from orthogonality  is 4.66D-15 for   2222    510.
 Iteration    1 A^-1*A deviation from unit magnitude is 8.77D-15 for   1067.
 Iteration    1 A^-1*A deviation from orthogonality  is 3.05D-15 for   1589   1543.
 E= -918.209240217585    
 DIIS: error= 1.62D-02 at cycle   1 NSaved=   1.
 NSaved= 1 IEnMin= 1 EnMin= -918.209240217585     IErMin= 1 ErrMin= 1.62D-02
 ErrMax= 1.62D-02  0.00D+00 EMaxC= 1.00D-01 BMatC= 2.94D-01 BMatP= 2.94D-01
 IDIUse=3 WtCom= 8.38D-01 WtEn= 1.62D-01
 Coeff-Com:  0.100D+01
 Coeff-En:   0.100D+01
 Coeff:      0.100D+01
 Gap=     0.141 Goal=   None    Shift=    0.000
 GapD=    0.141 DampG=1.000 DampE=0.500 DampFc=0.5000 IDamp=-1.
 Damping current iteration by 5.00D-01
 RMSDP=3.11D-02 MaxDP=2.44D+00              OVMax= 2.74D-01

 Cycle   2  Pass 1  IDiag  1:
 RMSU=  9.18D-03    CP:  8.52D-01
 E= -918.282814885762     Delta-E=       -0.073574668177 Rises=F Damp=T
 DIIS: error= 7.54D-03 at cycle   2 NSaved=   2.
 NSaved= 2 IEnMin= 2 EnMin= -918.282814885762     IErMin= 2 ErrMin= 7.54D-03
 ErrMax= 7.54D-03  0.00D+00 EMaxC= 1.00D-01 BMatC= 5.02D-02 BMatP= 2.94D-01
 IDIUse=3 WtCom= 9.25D-01 WtEn= 7.54D-02
 Coeff-Com: -0.125D+00 0.113D+01
 Coeff-En:   0.480D-01 0.952D+00
 Coeff:     -0.112D+00 0.111D+01
 Gap=     0.183 Goal=   None    Shift=    0.000
 RMSDP=2.17D-02 MaxDP=2.20D+00 DE=-7.36D-02 OVMax= 2.43D-01

 Cycle   3  Pass 1  IDiag  1:
 RMSU=  5.76D-03    CP:  6.08D-01  1.41D+00
 E= -918.364829133677     Delta-E=       -0.082014247915 Rises=F Damp=F
 DIIS: error= 6.66D-03 at cycle   3 NSaved=   3.
 NSaved= 3 IEnMin= 3 EnMin= -918.364829133677     IErMin= 3 ErrMin= 6.66D-03
 ErrMax= 6.66D-03  0.00D+00 EMaxC= 1.00D-01 BMatC= 1.92D-02 BMatP= 5.02D-02
 IDIUse=3 WtCom= 9.33D-01 WtEn= 6.66D-02
 Coeff-Com: -0.218D+00 0.473D+00 0.746D+00
 Coeff-En:   0.000D+00 0.000D+00 0.100D+01
 Coeff:     -0.204D+00 0.441D+00 0.763D+00
 Gap=     0.173 Goal=   None    Shift=    0.000
 RMSDP=2.52D-03 MaxDP=2.27D-01 DE=-8.20D-02 OVMax= 4.98D-02

 Cycle   4  Pass 1  IDiag  1:
 RMSU=  1.56D-03    CP:  5.88D-01  1.51D+00  9.08D-01
 E= -918.380485239828     Delta-E=       -0.015656106151 Rises=F Damp=F
 DIIS: error= 2.73D-03 at cycle   4 NSaved=   4.
 NSaved= 4 IEnMin= 4 EnMin= -918.380485239828     IErMin= 4 ErrMin= 2.73D-03
 ErrMax= 2.73D-03  0.00D+00 EMaxC= 1.00D-01 BMatC= 2.89D-03 BMatP= 1.92D-02
 IDIUse=3 WtCom= 9.73D-01 WtEn= 2.73D-02
 Coeff-Com: -0.110D+00 0.207D+00 0.435D+00 0.467D+00
 Coeff-En:   0.000D+00 0.000D+00 0.138D-01 0.986D+00
 Coeff:     -0.107D+00 0.202D+00 0.424D+00 0.481D+00
 Gap=     0.174 Goal=   None    Shift=    0.000
 RMSDP=6.42D-04 MaxDP=5.64D-02 DE=-1.57D-02 OVMax= 1.37D-02

 Cycle   5  Pass 1  IDiag  1:
 RMSU=  4.17D-04    CP:  5.89D-01  1.55D+00  9.08D-01  8.00D-01
 E= -918.383000001884     Delta-E=       -0.002514762056 Rises=F Damp=F
 DIIS: error= 6.29D-04 at cycle   5 NSaved=   5.
 NSaved= 5 IEnMin= 5 EnMin= -918.383000001884     IErMin= 5 ErrMin= 6.29D-04
 ErrMax= 6.29D-04  0.00D+00 EMaxC= 1.00D-01 BMatC= 9.02D-05 BMatP= 2.89D-03
 IDIUse=3 WtCom= 9.94D-01 WtEn= 6.29D-03
 Coeff-Com: -0.360D-01 0.640D-01 0.142D+00 0.200D+00 0.630D+00
 Coeff-En:   0.000D+00 0.000D+00 0.000D+00 0.000D+00 0.100D+01
 Coeff:     -0.358D-01 0.636D-01 0.141D+00 0.199D+00 0.632D+00
 Gap=     0.175 Goal=   None    Shift=    0.000
 RMSDP=2.64D-04 MaxDP=2.45D-02 DE=-2.51D-03 OVMax= 4.02D-03

 Cycle   6  Pass 1  IDiag  1:
 RMSU=  1.72D-04    CP:  5.88D-01  1.55D+00  9.16D-01  8.33D-01  1.21D+00
 E= -918.383107543087     Delta-E=       -0.000107541203 Rises=F Damp=F
 DIIS: error= 2.89D-04 at cycle   6 NSaved=   6.
 NSaved= 6 IEnMin= 6 EnMin= -918.383107543087     IErMin= 6 ErrMin= 2.89D-04
 ErrMax= 2.89D-04  0.00D+00 EMaxC= 1.00D-01 BMatC= 2.05D-05 BMatP= 9.02D-05
 IDIUse=3 WtCom= 9.97D-01 WtEn= 2.89D-03
 Coeff-Com:  0.155D-01-0.306D-01-0.631D-01-0.605D-01 0.292D+00 0.847D+00
 Coeff-En:   0.000D+00 0.000D+00 0.000D+00 0.000D+00 0.000D+00 0.100D+01
 Coeff:      0.154D-01-0.305D-01-0.630D-01-0.604D-01 0.291D+00 0.848D+00
 Gap=     0.177 Goal=   None    Shift=    0.000
 RMSDP=1.65D-04 MaxDP=1.32D-02 DE=-1.08D-04 OVMax= 4.37D-03

 Cycle   7  Pass 1  IDiag  1:
 RMSU=  6.33D-05    CP:  5.87D-01  1.56D+00  9.19D-01  8.80D-01  1.38D+00
                    CP:  1.18D+00
 E= -918.383149767363     Delta-E=       -0.000042224276 Rises=F Damp=F
 DIIS: error= 7.55D-05 at cycle   7 NSaved=   7.
 NSaved= 7 IEnMin= 7 EnMin= -918.383149767363     IErMin= 7 ErrMin= 7.55D-05
 ErrMax= 7.55D-05  0.00D+00 EMaxC= 1.00D-01 BMatC= 2.74D-06 BMatP= 2.05D-05
 IDIUse=1 WtCom= 1.00D+00 WtEn= 0.00D+00
 Coeff-Com:  0.102D-01-0.193D-01-0.403D-01-0.468D-01 0.343D-01 0.365D+00
 Coeff-Com:  0.697D+00
 Coeff:      0.102D-01-0.193D-01-0.403D-01-0.468D-01 0.343D-01 0.365D+00
 Coeff:      0.697D+00
 Gap=     0.177 Goal=   None    Shift=    0.000
 RMSDP=4.60D-05 MaxDP=2.37D-03 DE=-4.22D-05 OVMax= 1.42D-03

 Cycle   8  Pass 1  IDiag  1:
 RMSU=  2.14D-05    CP:  5.87D-01  1.56D+00  9.19D-01  8.89D-01  1.45D+00
                    CP:  1.30D+00  1.03D+00
 E= -918.383154051456     Delta-E=       -0.000004284094 Rises=F Damp=F
 DIIS: error= 2.75D-05 at cycle   8 NSaved=   8.
 NSaved= 8 IEnMin= 8 EnMin= -918.383154051456     IErMin= 8 ErrMin= 2.75D-05
 ErrMax= 2.75D-05  0.00D+00 EMaxC= 1.00D-01 BMatC= 3.08D-07 BMatP= 2.74D-06
 IDIUse=1 WtCom= 1.00D+00 WtEn= 0.00D+00
 Coeff-Com:  0.133D-02-0.232D-02-0.468D-02-0.704D-02-0.339D-01 0.249D-01
 Coeff-Com:  0.258D+00 0.764D+00
 Coeff:      0.133D-02-0.232D-02-0.468D-02-0.704D-02-0.339D-01 0.249D-01
 Coeff:      0.258D+00 0.764D+00
 Gap=     0.177 Goal=   None    Shift=    0.000
 RMSDP=9.32D-06 MaxDP=5.56D-04 DE=-4.28D-06 OVMax= 3.79D-04

 Cycle   9  Pass 1  IDiag  1:
 RMSU=  8.18D-06    CP:  5.87D-01  1.56D+00  9.19D-01  8.88D-01  1.46D+00
                    CP:  1.31D+00  1.06D+00  9.68D-01
 E= -918.383154548749     Delta-E=       -0.000000497293 Rises=F Damp=F
 DIIS: error= 1.28D-05 at cycle   9 NSaved=   9.
 NSaved= 9 IEnMin= 9 EnMin= -918.383154548749     IErMin= 9 ErrMin= 1.28D-05
 ErrMax= 1.28D-05  0.00D+00 EMaxC= 1.00D-01 BMatC= 8.16D-08 BMatP= 3.08D-07
 IDIUse=1 WtCom= 1.00D+00 WtEn= 0.00D+00
 Coeff-Com: -0.943D-03 0.188D-02 0.390D-02 0.396D-02-0.229D-01-0.405D-01
 Coeff-Com:  0.163D-01 0.386D+00 0.652D+00
 Coeff:     -0.943D-03 0.188D-02 0.390D-02 0.396D-02-0.229D-01-0.405D-01
 Coeff:      0.163D-01 0.386D+00 0.652D+00
 Gap=     0.177 Goal=   None    Shift=    0.000
 RMSDP=6.35D-06 MaxDP=6.83D-04 DE=-4.97D-07 OVMax= 1.49D-04

 Cycle  10  Pass 1  IDiag  1:
 RMSU=  3.94D-06    CP:  5.87D-01  1.56D+00  9.19D-01  8.87D-01  1.46D+00
                    CP:  1.31D+00  1.10D+00  1.04D+00  1.17D+00
 E= -918.383154633796     Delta-E=       -0.000000085047 Rises=F Damp=F
 DIIS: error= 5.03D-06 at cycle  10 NSaved=  10.
 NSaved=10 IEnMin=10 EnMin= -918.383154633796     IErMin=10 ErrMin= 5.03D-06
 ErrMax= 5.03D-06  0.00D+00 EMaxC= 1.00D-01 BMatC= 9.23D-09 BMatP= 8.16D-08
 IDIUse=1 WtCom= 1.00D+00 WtEn= 0.00D+00
 Coeff-Com: -0.654D-03 0.127D-02 0.246D-02 0.291D-02-0.716D-02-0.226D-01
 Coeff-Com: -0.268D-01 0.982D-01 0.311D+00 0.641D+00
 Coeff:     -0.654D-03 0.127D-02 0.246D-02 0.291D-02-0.716D-02-0.226D-01
 Coeff:     -0.268D-01 0.982D-01 0.311D+00 0.641D+00
 Gap=     0.177 Goal=   None    Shift=    0.000
 RMSDP=2.94D-06 MaxDP=2.69D-04 DE=-8.50D-08 OVMax= 5.01D-05

 Cycle  11  Pass 1  IDiag  1:
 RMSU=  1.30D-06    CP:  5.87D-01  1.56D+00  9.19D-01  8.87D-01  1.46D+00
                    CP:  1.31D+00  1.11D+00  1.07D+00  1.20D+00  1.00D+00
 E= -918.383154644597     Delta-E=       -0.000000010801 Rises=F Damp=F
 DIIS: error= 1.76D-06 at cycle  11 NSaved=  11.
 NSaved=11 IEnMin=11 EnMin= -918.383154644597     IErMin=11 ErrMin= 1.76D-06
 ErrMax= 1.76D-06  0.00D+00 EMaxC= 1.00D-01 BMatC= 1.08D-09 BMatP= 9.23D-09
 IDIUse=1 WtCom= 1.00D+00 WtEn= 0.00D+00
 Coeff-Com: -0.190D-03 0.364D-03 0.597D-03 0.823D-03-0.825D-03-0.577D-02
 Coeff-Com: -0.134D-01 0.173D-02 0.564D-01 0.263D+00 0.697D+00
 Coeff:     -0.190D-03 0.364D-03 0.597D-03 0.823D-03-0.825D-03-0.577D-02
 Coeff:     -0.134D-01 0.173D-02 0.564D-01 0.263D+00 0.697D+00
 Gap=     0.177 Goal=   None    Shift=    0.000
 RMSDP=6.13D-07 MaxDP=5.09D-05 DE=-1.08D-08 OVMax= 2.25D-05

 Cycle  12  Pass 1  IDiag  1:
 RMSU=  4.12D-07    CP:  5.87D-01  1.56D+00  9.19D-01  8.87D-01  1.46D+00
                    CP:  1.31D+00  1.11D+00  1.07D+00  1.22D+00  1.02D+00
                    CP:  1.08D+00
 E= -918.383154646282     Delta-E=       -0.000000001685 Rises=F Damp=F
 DIIS: error= 9.08D-07 at cycle  12 NSaved=  12.
 NSaved=12 IEnMin=12 EnMin= -918.383154646282     IErMin=12 ErrMin= 9.08D-07
 ErrMax= 9.08D-07  0.00D+00 EMaxC= 1.00D-01 BMatC= 1.74D-10 BMatP= 1.08D-09
 IDIUse=1 WtCom= 1.00D+00 WtEn= 0.00D+00
 Coeff-Com:  0.424D-04-0.839D-04-0.229D-03-0.188D-03 0.967D-03 0.144D-02
 Coeff-Com: -0.260D-03-0.163D-01-0.334D-01-0.290D-01 0.269D+00 0.808D+00
 Coeff:      0.424D-04-0.839D-04-0.229D-03-0.188D-03 0.967D-03 0.144D-02
 Coeff:     -0.260D-03-0.163D-01-0.334D-01-0.290D-01 0.269D+00 0.808D+00
 Gap=     0.177 Goal=   None    Shift=    0.000
 RMSDP=4.76D-07 MaxDP=4.34D-05 DE=-1.68D-09 OVMax= 1.36D-05

 Cycle  13  Pass 1  IDiag  1:
 RMSU=  2.05D-07    CP:  5.87D-01  1.56D+00  9.19D-01  8.87D-01  1.46D+00
                    CP:  1.31D+00  1.11D+00  1.07D+00  1.23D+00  1.05D+00
                    CP:  1.19D+00  1.07D+00
 E= -918.383154646791     Delta-E=       -0.000000000509 Rises=F Damp=F
 DIIS: error= 4.04D-07 at cycle  13 NSaved=  13.
 NSaved=13 IEnMin=13 EnMin= -918.383154646791     IErMin=13 ErrMin= 4.04D-07
 ErrMax= 4.04D-07  0.00D+00 EMaxC= 1.00D-01 BMatC= 2.48D-11 BMatP= 1.74D-10
 IDIUse=1 WtCom= 1.00D+00 WtEn= 0.00D+00
 Coeff-Com:  0.251D-04-0.491D-04-0.107D-03-0.981D-04 0.432D-03 0.875D-03
 Coeff-Com:  0.149D-02-0.479D-02-0.152D-01-0.461D-01 0.101D-01 0.292D+00
 Coeff-Com:  0.761D+00
 Coeff:      0.251D-04-0.491D-04-0.107D-03-0.981D-04 0.432D-03 0.875D-03
 Coeff:      0.149D-02-0.479D-02-0.152D-01-0.461D-01 0.101D-01 0.292D+00
 Coeff:      0.761D+00
 Gap=     0.177 Goal=   None    Shift=    0.000
 RMSDP=1.24D-07 MaxDP=8.79D-06 DE=-5.09D-10 OVMax= 4.95D-06

 Cycle  14  Pass 1  IDiag  1:
 RMSU=  8.14D-08    CP:  5.87D-01  1.56D+00  9.19D-01  8.87D-01  1.46D+00
                    CP:  1.31D+00  1.11D+00  1.07D+00  1.23D+00  1.04D+00
                    CP:  1.21D+00  1.10D+00  1.07D+00
 E= -918.383154646778     Delta-E=        0.000000000012 Rises=F Damp=F
 DIIS: error= 1.58D-07 at cycle  14 NSaved=  14.
 NSaved=14 IEnMin=13 EnMin= -918.383154646791     IErMin=14 ErrMin= 1.58D-07
 ErrMax= 1.58D-07  0.00D+00 EMaxC= 1.00D-01 BMatC= 5.01D-12 BMatP= 2.48D-11
 IDIUse=1 WtCom= 1.00D+00 WtEn= 0.00D+00
 Coeff-Com:  0.235D-05-0.421D-05-0.208D-05-0.151D-07-0.340D-04-0.141D-05
 Coeff-Com:  0.744D-03 0.153D-02 0.182D-02-0.133D-01-0.547D-01-0.739D-01
 Coeff-Com:  0.264D+00 0.874D+00
 Coeff:      0.235D-05-0.421D-05-0.208D-05-0.151D-07-0.340D-04-0.141D-05
 Coeff:      0.744D-03 0.153D-02 0.182D-02-0.133D-01-0.547D-01-0.739D-01
 Coeff:      0.264D+00 0.874D+00
 Gap=     0.177 Goal=   None    Shift=    0.000
 RMSDP=8.35D-08 MaxDP=5.87D-06 DE= 1.23D-11 OVMax= 3.22D-06

 Cycle  15  Pass 1  IDiag  1:
 RMSU=  4.00D-08    CP:  5.87D-01  1.56D+00  9.19D-01  8.87D-01  1.46D+00
                    CP:  1.31D+00  1.11D+00  1.07D+00  1.23D+00  1.04D+00
                    CP:  1.24D+00  1.13D+00  1.18D+00  1.07D+00
 E= -918.383154646781     Delta-E=       -0.000000000003 Rises=F Damp=F
 DIIS: error= 4.80D-08 at cycle  15 NSaved=  15.
 NSaved=15 IEnMin=13 EnMin= -918.383154646791     IErMin=15 ErrMin= 4.80D-08
 ErrMax= 4.80D-08  0.00D+00 EMaxC= 1.00D-01 BMatC= 8.72D-13 BMatP= 5.01D-12
 IDIUse=1 WtCom= 1.00D+00 WtEn= 0.00D+00
 Coeff-Com: -0.537D-05 0.107D-04 0.221D-04 0.239D-04-0.858D-04-0.196D-03
 Coeff-Com:  0.374D-04 0.144D-02 0.366D-02 0.304D-02-0.202D-01-0.741D-01
 Coeff-Com: -0.181D-01 0.314D+00 0.791D+00
 Coeff:     -0.537D-05 0.107D-04 0.221D-04 0.239D-04-0.858D-04-0.196D-03
 Coeff:      0.374D-04 0.144D-02 0.366D-02 0.304D-02-0.202D-01-0.741D-01
 Coeff:     -0.181D-01 0.314D+00 0.791D+00
 Gap=     0.177 Goal=   None    Shift=    0.000
 RMSDP=3.30D-08 MaxDP=3.38D-06 DE=-2.73D-12 OVMax= 9.82D-07

 Cycle  16  Pass 1  IDiag  1:
 RMSU=  1.24D-08    CP:  5.87D-01  1.56D+00  9.19D-01  8.87D-01  1.46D+00
                    CP:  1.31D+00  1.11D+00  1.07D+00  1.23D+00  1.04D+00
                    CP:  1.24D+00  1.13D+00  1.22D+00  1.20D+00  1.16D+00
 E= -918.383154646819     Delta-E=       -0.000000000038 Rises=F Damp=F
 DIIS: error= 2.36D-08 at cycle  16 NSaved=  16.
 NSaved=16 IEnMin=16 EnMin= -918.383154646819     IErMin=16 ErrMin= 2.36D-08
 ErrMax= 2.36D-08  0.00D+00 EMaxC= 1.00D-01 BMatC= 1.30D-13 BMatP= 8.72D-13
 IDIUse=1 WtCom= 1.00D+00 WtEn= 0.00D+00
 Coeff-Com: -0.210D-05 0.408D-05 0.584D-05 0.555D-05-0.167D-04-0.637D-04
 Coeff-Com: -0.925D-04 0.114D-03 0.642D-03 0.288D-02 0.352D-02-0.962D-02
 Coeff-Com: -0.449D-01-0.721D-01 0.228D+00 0.892D+00
 Coeff:     -0.210D-05 0.408D-05 0.584D-05 0.555D-05-0.167D-04-0.637D-04
 Coeff:     -0.925D-04 0.114D-03 0.642D-03 0.288D-02 0.352D-02-0.962D-02
 Coeff:     -0.449D-01-0.721D-01 0.228D+00 0.892D+00
 Gap=     0.177 Goal=   None    Shift=    0.000
 RMSDP=1.65D-08 MaxDP=1.75D-06 DE=-3.82D-11 OVMax= 4.47D-07

 Cycle  17  Pass 1  IDiag  1:
 RMSU=  5.33D-09    CP:  5.87D-01  1.56D+00  9.19D-01  8.87D-01  1.46D+00
                    CP:  1.31D+00  1.11D+00  1.07D+00  1.23D+00  1.04D+00
                    CP:  1.24D+00  1.13D+00  1.23D+00  1.21D+00  1.31D+00
                    CP:  1.16D+00
 E= -918.383154646776     Delta-E=        0.000000000043 Rises=F Damp=F
 DIIS: error= 7.00D-09 at cycle  17 NSaved=  17.
 NSaved=17 IEnMin=16 EnMin= -918.383154646819     IErMin=17 ErrMin= 7.00D-09
 ErrMax= 7.00D-09  0.00D+00 EMaxC= 1.00D-01 BMatC= 1.57D-14 BMatP= 1.30D-13
 IDIUse=1 WtCom= 1.00D+00 WtEn= 0.00D+00
 Coeff-Com: -0.556D-06 0.105D-05 0.799D-06 0.360D-06 0.384D-06-0.146D-04
 Coeff-Com: -0.480D-04-0.753D-04-0.745D-04 0.991D-03 0.352D-02 0.362D-02
 Coeff-Com: -0.147D-01-0.633D-01 0.730D-02 0.339D+00 0.723D+00
 Coeff:     -0.556D-06 0.105D-05 0.799D-06 0.360D-06 0.384D-06-0.146D-04
 Coeff:     -0.480D-04-0.753D-04-0.745D-04 0.991D-03 0.352D-02 0.362D-02
 Coeff:     -0.147D-01-0.633D-01 0.730D-02 0.339D+00 0.723D+00
 Gap=     0.177 Goal=   None    Shift=    0.000
 RMSDP=4.54D-09 MaxDP=5.20D-07 DE= 4.32D-11 OVMax= 1.30D-07

 Error on total polarization charges =  0.01880
 SCF Done:  E(RCAM-B3LYP) =  -918.383154647     A.U. after   17 cycles
            NFock= 17  Conv=0.45D-08     -V/T= 2.0068
 KE= 9.122014916636D+02 PE=-5.040899796264D+03 EE= 1.758524272563D+03
 Leave Link  502 at Tue Jul 26 21:14:28 2022, MaxMem=   939524096 cpu:            3085.6 elap:             788.2
 (Enter /scr/programas/g16/l801.exe)
 DoSCS=F DFT=T ScalE2(SS,OS)=  1.000000  1.000000
 Range of M.O.s used for correlation:     1   432
 NBasis=   438 NAE=    72 NBE=    72 NFC=     0 NFV=     0
 NROrb=    432 NOA=    72 NOB=    72 NVA=   360 NVB=   360

 **** Warning!!: The largest alpha MO coefficient is  0.17335589D+03

 Leave Link  801 at Tue Jul 26 21:14:28 2022, MaxMem=   939524096 cpu:               0.2 elap:               0.1
 (Enter /scr/programas/g16/l1002.exe)
 Minotr:  Closed shell wavefunction.
 NEqPCM:  Using non-equilibrium solvation (IEInf=1, Eps=   4.7113, EpsInf=   2.0906)
 Inv3:  Mode=1 IEnd=    21886203.
 Iteration    1 A*A^-1 deviation from unit magnitude is 8.77D-15 for   2460.
 Iteration    1 A*A^-1 deviation from orthogonality  is 5.06D-15 for   2261   2063.
 Iteration    1 A^-1*A deviation from unit magnitude is 8.77D-15 for   2460.
 Iteration    1 A^-1*A deviation from orthogonality  is 4.11D-15 for   2060    208.
          Direct CPHF calculation.
          Differentiating once with respect to electric field.
                with respect to dipole field.
          Electric field/nuclear overlap derivatives assumed to be zero.
          Requested convergence is 1.0D-08 RMS, and 1.0D-07 maximum.
          NewPWx=F KeepS1=T KeepF1=T KeepIn=T MapXYZ=F SortEE=F KeepMc=T.
        10241 words used for storage of precomputed grid.
 Two-electron integral symmetry used by symmetrizing perturbed Fock matrices.
          MDV=     939524096 using IRadAn=       1.
          Solving linear equations separately, MaxMat=     384.
          Doing perturbations at frequencies    0.000000    0.023893    0.047785
          There are     9 degrees of freedom in the 1st order CPHF.  IDoFFX=0 NUNeed=     9.
 LinEq1:  Iter=  0 NonCon=     9 RMS=1.16D-01 Max=1.28D+01 NDo=     9
 AX will form     9 AO Fock derivatives at one time.
 FoFJK:  IHMeth= 1 ICntrl=       0 DoSepK=T KAlg= 0 I1Cent=           0 FoldK=F
 IRaf=         1 NMat=      18 IRICut=       1 DoRegI=T DoRafI=F ISym2E=-1 IDoP0=0 IntGTp=1.
 LinEq1:  Iter=  1 NonCon=     9 RMS=4.78D-02 Max=3.08D+00 NDo=     9
 LinEq1:  Iter=  2 NonCon=     9 RMS=2.91D-02 Max=3.42D+00 NDo=     9
 LinEq1:  Iter=  3 NonCon=     9 RMS=1.70D-02 Max=1.52D+00 NDo=     9
 LinEq1:  Iter=  4 NonCon=     9 RMS=1.17D-02 Max=1.16D+00 NDo=     9
 LinEq1:  Iter=  5 NonCon=     9 RMS=6.21D-03 Max=4.03D-01 NDo=     9
 LinEq1:  Iter=  6 NonCon=     9 RMS=3.63D-03 Max=2.66D-01 NDo=     9
 LinEq1:  Iter=  7 NonCon=     9 RMS=1.84D-03 Max=1.10D-01 NDo=     9
 LinEq1:  Iter=  8 NonCon=     9 RMS=1.23D-03 Max=5.59D-02 NDo=     9
 LinEq1:  Iter=  9 NonCon=     9 RMS=7.84D-04 Max=3.91D-02 NDo=     9
 LinEq1:  Iter= 10 NonCon=     9 RMS=4.18D-04 Max=2.31D-02 NDo=     9
 LinEq1:  Iter= 11 NonCon=     9 RMS=2.05D-04 Max=1.13D-02 NDo=     9
 LinEq1:  Iter= 12 NonCon=     8 RMS=1.11D-04 Max=6.52D-03 NDo=     9
 LinEq1:  Iter= 13 NonCon=     6 RMS=5.58D-05 Max=2.78D-03 NDo=     9
 LinEq1:  Iter= 14 NonCon=     6 RMS=2.86D-05 Max=1.97D-03 NDo=     6
 LinEq1:  Iter= 15 NonCon=     6 RMS=1.34D-05 Max=7.66D-04 NDo=     6
 LinEq1:  Iter= 16 NonCon=     6 RMS=7.78D-06 Max=3.98D-04 NDo=     6
 LinEq1:  Iter= 17 NonCon=     6 RMS=3.51D-06 Max=2.15D-04 NDo=     6
 LinEq1:  Iter= 18 NonCon=     6 RMS=1.63D-06 Max=1.01D-04 NDo=     6
 LinEq1:  Iter= 19 NonCon=     6 RMS=7.52D-07 Max=4.77D-05 NDo=     6
 LinEq1:  Iter= 20 NonCon=     6 RMS=4.36D-07 Max=2.07D-05 NDo=     6
 LinEq1:  Iter= 21 NonCon=     6 RMS=1.68D-07 Max=9.61D-06 NDo=     6
 LinEq1:  Iter= 22 NonCon=     6 RMS=9.80D-08 Max=4.38D-06 NDo=     6
 LinEq1:  Iter= 23 NonCon=     6 RMS=3.62D-08 Max=2.45D-06 NDo=     6
 LinEq1:  Iter= 24 NonCon=     6 RMS=2.10D-08 Max=1.00D-06 NDo=     6
 LinEq1:  Iter= 25 NonCon=     4 RMS=1.02D-08 Max=6.99D-07 NDo=     6
 LinEq1:  Iter= 26 NonCon=     2 RMS=3.30D-09 Max=1.69D-07 NDo=     4
 LinEq1:  Iter= 27 NonCon=     0 RMS=1.71D-09 Max=7.28D-08 NDo=     2
 Linear equations converged to 1.000D-08 1.000D-07 after    27 iterations.
 FullF1:  Do perturbations      1 to       9.
 SCF Polarizability for W=    0.000000:
                1             2             3 
      1  0.320414D+03
      2  0.250250D+02  0.513100D+03
      3  0.000000D+00  0.000000D+00  0.129255D+03
 Isotropic polarizability for W=    0.000000      320.92 Bohr**3.
 SCF Polarizability for W=    0.023893:
                1             2             3 
      1  0.284888D+03
      2  0.214055D+02  0.485042D+03
      3  0.000000D+00  0.000000D+00  0.117816D+03
 Isotropic polarizability for W=    0.023893      295.92 Bohr**3.
 SCF Polarizability for W=    0.047785:
                1             2             3 
      1  0.292628D+03
      2  0.288750D+02  0.524342D+03
      3  0.000000D+00  0.000000D+00  0.118637D+03
 Isotropic polarizability for W=    0.047785      311.87 Bohr**3.
 SCF Static Hyperpolarizability:
 K=  1 block:
                1 
      1 -0.506132D+03
 K=  2 block:
                1             2 
      1  0.679528D+03
      2  0.342205D+04  0.111692D+05
 K=  3 block:
                1             2             3 
      1  0.000000D+00
      2  0.000000D+00  0.000000D+00
      3 -0.685129D+02 -0.516575D+02  0.000000D+00
 SCF Beta(-W,W;0) for W=    0.023893:
 K=  1 block:
                1             2             3 
      1 -0.426672D+03
      2  0.557171D+03  0.321133D+04
      3  0.000000D+00  0.000000D+00 -0.595302D+02
 K=  2 block:
                1             2             3 
      1  0.577584D+03
      2  0.305414D+04  0.106194D+05
      3  0.000000D+00  0.000000D+00 -0.457073D+02
 K=  3 block:
                1             2             3 
      1  0.000000D+00
      2  0.000000D+00  0.000000D+00
      3 -0.591941D+02 -0.491719D+02  0.000000D+00
 SCF Beta(W,W;-2W) for W=    0.023893:
 K=  1 block:
                1             2             3 
      1 -0.438926D+03
      2  0.724603D+03  0.380668D+04
      3  0.000000D+00  0.000000D+00 -0.603799D+02
 K=  2 block:
                1             2             3 
      1  0.399261D+03
      2  0.355531D+04  0.126801D+05
      3  0.000000D+00  0.000000D+00 -0.558126D+02
 K=  3 block:
                1             2             3 
      1  0.000000D+00
      2  0.000000D+00  0.000000D+00
      3 -0.558591D+02 -0.471088D+02  0.000000D+00
 SCF Beta(-W,W;0) for W=    0.047785:
 K=  1 block:
                1             2             3 
      1 -0.531663D+03
      2  0.660754D+03  0.453542D+04
      3  0.000000D+00  0.000000D+00 -0.608743D+02
 K=  2 block:
                1             2             3 
      1  0.109875D+04
      2  0.475552D+04  0.159209D+05
      3  0.000000D+00  0.000000D+00 -0.474493D+02
 K=  3 block:
                1             2             3 
      1  0.000000D+00
      2  0.000000D+00  0.000000D+00
      3 -0.654668D+02 -0.605345D+02  0.000000D+00
 End of Minotr F.D. properties on file   721 Mask=      31 NFrqRd=     2 NDeriv=     1 ND12= 1 LenFil=      94:
 Frequencies=    0.000000    0.023893
 Property number 1 -- Alpha(-w,w) frequency  1    0.000000:
                 1             2             3 
      1   0.320414D+03  0.250250D+02  0.000000D+00
      2   0.250250D+02  0.513100D+03  0.000000D+00
      3   0.000000D+00  0.000000D+00  0.129255D+03
 Property number 1 -- Alpha(-w,w) frequency  2    0.023893:
                 1             2             3 
      1   0.284888D+03  0.214055D+02  0.000000D+00
      2   0.214055D+02  0.485042D+03  0.000000D+00
      3   0.000000D+00  0.000000D+00  0.117816D+03
 Property number 5 -- Beta(-w,w,0) frequency  1    0.000000:
                 1 
      1  -0.506132D+03
      2   0.679528D+03
      3   0.342205D+04
      4   0.000000D+00
      5   0.000000D+00
      6  -0.685129D+02
      7   0.679528D+03
      8   0.342205D+04
      9   0.111692D+05
     10   0.000000D+00
     11   0.000000D+00
     12  -0.516575D+02
     13   0.000000D+00
     14   0.000000D+00
     15   0.000000D+00
     16  -0.685129D+02
     17  -0.516575D+02
     18   0.000000D+00
 Property number 5 -- Beta(-w,w,0) frequency  2    0.023893:
                 1 
      1  -0.426672D+03
      2   0.557171D+03
      3   0.321133D+04
      4   0.000000D+00
      5   0.000000D+00
      6  -0.595302D+02
      7   0.577584D+03
      8   0.305414D+04
      9   0.106194D+05
     10   0.000000D+00
     11   0.000000D+00
     12  -0.457073D+02
     13   0.000000D+00
     14   0.000000D+00
     15   0.000000D+00
     16  -0.591941D+02
     17  -0.491719D+02
     18   0.000000D+00
 Property number 6 -- Beta(w,w,-2w) frequency  1    0.000000:
                 1 
      1  -0.506132D+03
      2   0.679528D+03
      3   0.342205D+04
      4   0.000000D+00
      5   0.000000D+00
      6  -0.685129D+02
      7   0.679528D+03
      8   0.342205D+04
      9   0.111692D+05
     10   0.000000D+00
     11   0.000000D+00
     12  -0.516575D+02
     13   0.000000D+00
     14   0.000000D+00
     15   0.000000D+00
     16  -0.685129D+02
     17  -0.516575D+02
     18   0.000000D+00
 Property number 6 -- Beta(w,w,-2w) frequency  2    0.023893:
                 1 
      1  -0.438926D+03
      2   0.724603D+03
      3   0.380668D+04
      4   0.000000D+00
      5   0.000000D+00
      6  -0.603799D+02
      7   0.399261D+03
      8   0.355531D+04
      9   0.126801D+05
     10   0.000000D+00
     11   0.000000D+00
     12  -0.558126D+02
     13   0.000000D+00
     14   0.000000D+00
     15   0.000000D+00
     16  -0.558591D+02
     17  -0.471088D+02
     18   0.000000D+00
 End of Minotr F.D. properties file   722 does not exist.
 End of Minotr F.D. properties file   788 does not exist.
 Leave Link 1002 at Tue Jul 26 22:10:11 2022, MaxMem=   939524096 cpu:           13313.4 elap:            3342.3
 (Enter /scr/programas/g16/l601.exe)
 Copying SCF densities to generalized density rwf, IOpCl= 0 IROHF=0.

 **********************************************************************

            Population analysis using the SCF Density.

 **********************************************************************

 Orbital symmetries:
       Occupied  (A') (A') (A') (A') (A') (A') (A') (A') (A') (A')
                 (A') (A') (A') (A') (A') (A') (A') (A') (A') (A')
                 (A') (A') (A') (A') (A') (A') (A') (A') (A') (A')
                 (A') (A') (A') (A') (A') (A') (A') (A') (A') (A')
                 (A') (A') (A') (A') (A') (A") (A') (A') (A') (A')
                 (A') (A') (A") (A') (A') (A') (A") (A") (A') (A")
                 (A') (A') (A') (A') (A") (A') (A') (A") (A") (A")
                 (A") (A")
       Virtual   (A") (A") (A") (A") (A') (A") (A') (A') (A') (A')
                 (A") (A') (A') (A') (A") (A") (A') (A') (A") (A')
                 (A") (A") (A') (A') (A') (A") (A") (A') (A') (A")
                 (A') (A") (A') (A") (A") (A") (A') (A') (A') (A")
                 (A') (A') (A') (A") (A') (A") (A') (A") (A') (A')
                 (A') (A") (A') (A') (A') (A') (A") (A') (A") (A')
                 (A') (A') (A") (A') (A") (A') (A') (A') (A") (A')
                 (A') (A') (A') (A') (A') (A') (A') (A') (A") (A')
                 (A') (A') (A') (A') (A') (A') (A") (A') (A') (A')
                 (A') (A') (A") (A') (A') (A') (A') (A') (A') (A')
[...]
   yx        -0.250249D+02     -0.370831D+01     -0.412606D+01
   yy         0.513100D+03      0.760336D+02      0.845988D+02
   zx         0.000000D+00      0.000000D+00      0.000000D+00
   zy         0.000000D+00      0.000000D+00      0.000000D+00
   zz         0.129255D+03      0.191536D+02      0.213113D+02

 Dipole polarizability, Alpha (input orientation).
 (esu units = cm**3 , SI units = C**2 m**2 J**-1)
 Alpha(0;0):
               (au)            (10**-24 esu)      (10**-40 SI)
   iso        0.320923D+03      0.475559D+02      0.529131D+02
   aniso      0.335235D+03      0.496766D+02      0.552727D+02
   xx         0.320414D+03      0.474805D+02      0.528292D+02
   yx        -0.250249D+02     -0.370831D+01     -0.412606D+01
   yy         0.513100D+03      0.760336D+02      0.845988D+02
   zx         0.000000D+00      0.000000D+00      0.000000D+00
   zy         0.000000D+00      0.000000D+00      0.000000D+00
   zz         0.129255D+03      0.191536D+02      0.213113D+02
 Alpha(-w;w) w= 1907.0nm:
                  (au)         (10**-24 esu)      (10**-40 SI)
   iso        0.295915D+03      0.438501D+02      0.487899D+02
   aniso      0.320608D+03      0.475093D+02      0.528612D+02
   xx         0.284888D+03      0.422161D+02      0.469717D+02
   yx        -0.214055D+02     -0.317196D+01     -0.352929D+01
   yy         0.485042D+03      0.718759D+02      0.799727D+02
   zx         0.000000D+00      0.000000D+00      0.000000D+00
   zy         0.000000D+00      0.000000D+00      0.000000D+00
   zz         0.117816D+03      0.174585D+02      0.194252D+02

 First dipole hyperpolarizability, Beta (input orientation).
 ||, _|_  parallel and perpendicular components, (z) with respect to z axis,
 vector components x,y,z.  Values do not include the 1/n! factor of 1/2.
 (esu units = statvolt**-1 cm**4 , SI units = C**3 m**3 J**-2)
 Beta(0;0,0):
               (au)            (10**-30 esu)      (10**-50 SI)
   || (z)     0.000000D+00      0.000000D+00      0.000000D+00
   _|_(z)     0.000000D+00      0.000000D+00      0.000000D+00
   x         -0.854221D+04     -0.737980D+02     -0.273894D+02
   y          0.353913D+05      0.305753D+03      0.113477D+03
   z          0.000000D+00      0.000000D+00      0.000000D+00
   ||         0.728151D+04      0.629066D+02      0.233472D+02
   xxx        0.506132D+03      0.437259D+01      0.162284D+01
   xxy        0.679526D+03      0.587058D+01      0.217881D+01
   yxy       -0.342205D+04     -0.295638D+02     -0.109723D+02
   yyy        0.111692D+05      0.964934D+02      0.358126D+02
   xxz        0.000000D+00      0.000000D+00      0.000000D+00
   yxz        0.000000D+00      0.000000D+00      0.000000D+00
   yyz        0.000000D+00      0.000000D+00      0.000000D+00
   zxz        0.685128D+02      0.591898D+00      0.219677D+00
   zyz       -0.516576D+02     -0.446281D+00     -0.165633D+00
   zzz        0.000000D+00      0.000000D+00      0.000000D+00

 First dipole hyperpolarizability, Beta (input orientation).
 ||, _|_  parallel and perpendicular components, (z) with respect to z axis,
 vector components x,y,z.  Values do not include the 1/n! factor of 1/2.
 (esu units = statvolt**-1 cm**4 , SI units = C**3 m**3 J**-2)
 Beta(0;0,0):
               (au)            (10**-30 esu)      (10**-50 SI)
   || (z)     0.000000D+00      0.000000D+00      0.000000D+00
   _|_(z)     0.000000D+00      0.000000D+00      0.000000D+00
   x         -0.854221D+04     -0.737980D+02     -0.273894D+02
   y          0.353913D+05      0.305753D+03      0.113477D+03
   z          0.000000D+00      0.000000D+00      0.000000D+00
   ||         0.728151D+04      0.629066D+02      0.233472D+02
   xxx        0.506132D+03      0.437259D+01      0.162284D+01
   xxy        0.679526D+03      0.587058D+01      0.217881D+01
   yxy       -0.342205D+04     -0.295638D+02     -0.109723D+02
   yyy        0.111692D+05      0.964934D+02      0.358126D+02
   xxz        0.000000D+00      0.000000D+00      0.000000D+00
   yxz        0.000000D+00      0.000000D+00      0.000000D+00
   yyz        0.000000D+00      0.000000D+00      0.000000D+00
   zxz        0.685128D+02      0.591898D+00      0.219677D+00
   zyz       -0.516576D+02     -0.446281D+00     -0.165633D+00
   zzz        0.000000D+00      0.000000D+00      0.000000D+00
 Beta(-w;w,0) w= 1907.0nm:
                  (au)         (10**-30 esu)      (10**-50 SI)
   || (z)     0.000000D+00      0.000000D+00      0.000000D+00
   _|_(z)     0.000000D+00      0.000000D+00      0.000000D+00
   x         -0.786166D+04     -0.679186D+02     -0.252073D+02
   y          0.334062D+05      0.288603D+03      0.107112D+03
   z          0.000000D+00      0.000000D+00      0.000000D+00
   ||         0.686375D+04      0.592975D+02      0.220077D+02
   xxx        0.426673D+03      0.368612D+01      0.136807D+01
   yxx        0.557170D+03      0.481351D+01      0.178649D+01
   yyx       -0.321132D+04     -0.277433D+02     -0.102967D+02
   zxx        0.000000D+00      0.000000D+00      0.000000D+00
   zyx        0.000000D+00      0.000000D+00      0.000000D+00
   zzx        0.595302D+02      0.514294D+00      0.190875D+00
   xxy        0.577583D+03      0.498986D+01      0.185194D+01
   yxy       -0.305414D+04     -0.263854D+02     -0.979266D+01
   yyy        0.106194D+05      0.917436D+02      0.340497D+02
   zxy        0.000000D+00      0.000000D+00      0.000000D+00
   zyy        0.000000D+00      0.000000D+00      0.000000D+00
   zzy       -0.457073D+02     -0.394875D+00     -0.146554D+00
   xxz        0.000000D+00      0.000000D+00      0.000000D+00
   yxz        0.000000D+00      0.000000D+00      0.000000D+00
   yyz        0.000000D+00      0.000000D+00      0.000000D+00
   zxz        0.591941D+02      0.511391D+00      0.189798D+00
   zyz       -0.491719D+02     -0.424807D+00     -0.157663D+00
   zzz        0.000000D+00      0.000000D+00      0.000000D+00
 Beta(-2w;w,w) w= 1907.0nm:
                  (au)         (10**-30 esu)      (10**-50 SI)
   || (z)     0.000000D+00      0.000000D+00      0.000000D+00
   _|_(z)     0.000000D+00      0.000000D+00      0.000000D+00
   x         -0.942842D+04     -0.814542D+02     -0.302309D+02
   y          0.397387D+05      0.343311D+03      0.127417D+03
   z          0.000000D+00      0.000000D+00      0.000000D+00
   ||         0.816838D+04      0.705684D+02      0.261908D+02
   xxx        0.438926D+03      0.379198D+01      0.140736D+01
   yxx        0.399260D+03      0.344929D+01      0.128017D+01
   zxx        0.000000D+00      0.000000D+00      0.000000D+00
   xyx        0.724602D+03      0.625999D+01      0.232333D+01
   yyx       -0.355531D+04     -0.307151D+02     -0.113996D+02
   zyx        0.000000D+00      0.000000D+00      0.000000D+00
   xyy       -0.380668D+04     -0.328868D+02     -0.122056D+02
   yyy        0.126801D+05      0.109546D+03      0.406570D+02
   zyy        0.000000D+00      0.000000D+00      0.000000D+00
   xzx        0.000000D+00      0.000000D+00      0.000000D+00
   yzx        0.000000D+00      0.000000D+00      0.000000D+00
   zzx        0.558591D+02      0.482579D+00      0.179105D+00
   xzy        0.000000D+00      0.000000D+00      0.000000D+00
   yzy        0.000000D+00      0.000000D+00      0.000000D+00
   zzy       -0.471088D+02     -0.406983D+00     -0.151048D+00
   xzz        0.603799D+02      0.521635D+00      0.193600D+00
   yzz       -0.558126D+02     -0.482178D+00     -0.178956D+00
   zzz        0.000000D+00      0.000000D+00      0.000000D+00

 ----------------------------------------------------------------------

 Dipole orientation:
     6          1.24467334          0.05785857         10.37971271
     6          3.66957009          0.17057975          9.33585573
     6          3.99502299          0.18570841          6.71673166
     6          1.89526084          0.08810109          5.12280766
     6         -0.54185177         -0.02518795          6.18032413
     6         -0.86498235         -0.04020865          8.80306691
     6         -2.74154318         -0.12744047          4.48505466
     6         -2.31737989         -0.10772327          1.71190644
     6          0.02837461          0.00131899          0.61106339
     6          2.27194568          0.10561126          2.31651173
     6          0.56505757          0.02626667         -2.07691341
     6         -1.11303979         -0.05173959         -4.01205999
     6         -0.48660588         -0.02261985         -6.70678618
     6         -2.48237748         -0.11539317         -8.46799541
     6         -2.02030210         -0.09391362        -11.06076857
     6          0.45795991          0.02128824        -11.95894574
     6          2.00444905          0.09317670         -7.65014761
     6          2.46491493          0.11458143        -10.23851373
     8         -4.47289112         -0.20792208          0.38449710
     8         -4.95642048         -0.23039891          5.22358764
     8          4.42456496          0.20567564          1.44671184
     1          1.00170632          0.04656426         12.41645818
     1          5.31033765          0.24685073         10.56516195
     1         -2.76406897         -0.12848758          9.56924227
     1          5.86282246          0.27253296          5.87866846
     1          2.57435557          0.11966877         -2.48083638
     1         -3.11645503         -0.14486823         -3.59051467
     1          3.59168124          0.16695909         -6.35327334
     1          4.39799238          0.20444042        -10.92341147
     1          0.82775827          0.03847829        -13.97753005
     1         -4.41475784         -0.20521976         -7.77703861
     1         -3.59285156         -0.16701349        -12.37800047
     1         -5.81544124         -0.27033044          1.66737049

 Electric dipole moment (dipole orientation):
 (Debye = 10**-18 statcoulomb cm , SI units = C m)
                  (au)            (Debye)         (10**-30 SI)
   Tot        0.104706D+01      0.266137D+01      0.887736D+01
   x          0.000000D+00      0.000000D+00      0.000000D+00
   y          0.000000D+00      0.000000D+00      0.000000D+00
   z          0.104706D+01      0.266137D+01      0.887736D+01

 Dipole polarizability, Alpha (dipole orientation).
 (esu units = cm**3 , SI units = C**2 m**2 J**-1)
 Alpha(0;0):
               (au)            (10**-24 esu)      (10**-40 SI)
   iso        0.320923D+03      0.475559D+02      0.529131D+02
   aniso      0.335235D+03      0.496766D+02      0.552727D+02
   xx         0.318100D+03      0.471376D+02      0.524476D+02
   yx         0.877845D+01      0.130083D+01      0.144737D+01
   yy         0.129663D+03      0.192141D+02      0.213786D+02
   zx        -0.159621D+02     -0.236534D+01     -0.263179D+01
   zy        -0.741997D+00     -0.109953D+00     -0.122339D+00
   zz         0.515007D+03      0.763161D+02      0.849131D+02

 Dipole polarizability, Alpha (dipole orientation).
 (esu units = cm**3 , SI units = C**2 m**2 J**-1)
 Alpha(0;0):
               (au)            (10**-24 esu)      (10**-40 SI)
   iso        0.320923D+03      0.475559D+02      0.529131D+02
   aniso      0.335235D+03      0.496766D+02      0.552727D+02
   xx         0.318100D+03      0.471376D+02      0.524476D+02
   yx         0.877845D+01      0.130083D+01      0.144737D+01
   yy         0.129663D+03      0.192141D+02      0.213786D+02
   zx        -0.159621D+02     -0.236534D+01     -0.263179D+01
   zy        -0.741997D+00     -0.109953D+00     -0.122339D+00
   zz         0.515007D+03      0.763161D+02      0.849131D+02
 Alpha(-w;w) w= 1907.0nm:
                  (au)         (10**-24 esu)      (10**-40 SI)
   iso        0.295915D+03      0.438501D+02      0.487899D+02
   aniso      0.320608D+03      0.475093D+02      0.528612D+02
   xx         0.282977D+03      0.419329D+02      0.466566D+02
   yx         0.767751D+01      0.113769D+01      0.126585D+01
   yy         0.118173D+03      0.175114D+02      0.194840D+02
   zx        -0.120161D+02     -0.178060D+01     -0.198119D+01
   zy        -0.558567D+00     -0.827711D-01     -0.920953D-01
   zz         0.486597D+03      0.721062D+02      0.802289D+02

 First dipole hyperpolarizability, Beta (dipole orientation).
 ||, _|_  parallel and perpendicular components, (z) with respect to z axis,
 vector components x,y,z.  Values do not include the 1/n! factor of 1/2.
 (esu units = statvolt**-1 cm**4 , SI units = C**3 m**3 J**-2)
 Beta(0;0,0):
               (au)            (10**-30 esu)      (10**-50 SI)
   || (z)     0.714995D+04      0.617700D+02      0.229253D+02
   _|_(z)     0.238332D+04      0.205900D+02      0.764177D+01
   x         -0.688217D+04     -0.594566D+02     -0.220667D+02
   y         -0.319917D+03     -0.276384D+01     -0.102577D+01
   z          0.357497D+05      0.308850D+03      0.114627D+03
   ||         0.728151D+04      0.629066D+02      0.233472D+02
   xxx        0.576518D+03      0.498067D+01      0.184853D+01
   xxy        0.206663D+02      0.178541D+00      0.662635D-01
   yxy        0.667871D+02      0.576989D+00      0.214144D+00
   yyy        0.923773D+01      0.798068D-01      0.296195D-01
   xxz        0.357341D+03      0.308715D+01      0.114576D+01
   yxz        0.191576D+02      0.165506D+00      0.614261D-01
   yyz       -0.538927D+02     -0.465591D+00     -0.172799D+00
   zxz       -0.293736D+04     -0.253765D+02     -0.941825D+01
   zyz       -0.136543D+03     -0.117963D+01     -0.437807D+00
   zzz        0.116131D+05      0.100328D+03      0.372359D+02

 First dipole hyperpolarizability, Beta (dipole orientation).
 ||, _|_  parallel and perpendicular components, (z) with respect to z axis,
 vector components x,y,z.  Values do not include the 1/n! factor of 1/2.
 (esu units = statvolt**-1 cm**4 , SI units = C**3 m**3 J**-2)
 Beta(0;0,0):
               (au)            (10**-30 esu)      (10**-50 SI)
   || (z)     0.714995D+04      0.617700D+02      0.229253D+02
   _|_(z)     0.238332D+04      0.205900D+02      0.764177D+01
   x         -0.688217D+04     -0.594566D+02     -0.220667D+02
   y         -0.319917D+03     -0.276384D+01     -0.102577D+01
   z          0.357497D+05      0.308850D+03      0.114627D+03
   ||         0.728151D+04      0.629066D+02      0.233472D+02
   xxx        0.576518D+03      0.498067D+01      0.184853D+01
   xxy        0.206663D+02      0.178541D+00      0.662635D-01
   yxy        0.667871D+02      0.576989D+00      0.214144D+00
   yyy        0.923773D+01      0.798068D-01      0.296195D-01
   xxz        0.357341D+03      0.308715D+01      0.114576D+01
   yxz        0.191576D+02      0.165506D+00      0.614261D-01
   yyz       -0.538927D+02     -0.465591D+00     -0.172799D+00
   zxz       -0.293736D+04     -0.253765D+02     -0.941825D+01
   zyz       -0.136543D+03     -0.117963D+01     -0.437807D+00
   zzz        0.116131D+05      0.100328D+03      0.372359D+02
 Beta(-w;w,0) w= 1907.0nm:
                  (au)         (10**-30 esu)      (10**-50 SI)
   || (z)     0.674704D+04      0.582892D+02      0.216334D+02
   _|_(z)     0.225939D+04      0.195194D+02      0.724442D+01
   x         -0.629517D+04     -0.543854D+02     -0.201846D+02
   y         -0.292631D+03     -0.252810D+01     -0.938280D+00
   z          0.337352D+05      0.291446D+03      0.108167D+03
   ||         0.686375D+04      0.592975D+02      0.220077D+02
   xxx        0.483480D+03      0.417689D+01      0.155021D+01
   yxx        0.171721D+02      0.148354D+00      0.550600D-01
   yyx        0.579572D+02      0.500705D+00      0.185832D+00
   zxx        0.265340D+03      0.229233D+01      0.850775D+00
   zyx        0.147454D+02      0.127388D+00      0.472790D-01
   zzx       -0.274343D+04     -0.237011D+02     -0.879644D+01
   xxy        0.171952D+02      0.148553D+00      0.551340D-01
   yxy        0.574612D+02      0.496420D+00      0.184241D+00
   yyy        0.797349D+01      0.688848D-01      0.255659D-01
   zxy        0.147454D+02      0.127388D+00      0.472790D-01
   zyy       -0.511821D+02     -0.442173D+00     -0.164108D+00
   zzy       -0.127528D+03     -0.110175D+01     -0.408902D+00
   xxz        0.292978D+03      0.253110D+01      0.939392D+00
   yxz        0.158699D+02      0.137104D+00      0.508848D-01
   yyz       -0.476846D+02     -0.411957D+00     -0.152894D+00
   zxz       -0.258753D+04     -0.223542D+02     -0.829656D+01
   zyz       -0.120281D+03     -0.103914D+01     -0.385665D+00
   zzz        0.110205D+05      0.952088D+02      0.353358D+02
 Beta(-2w;w,w) w= 1907.0nm:
                  (au)         (10**-30 esu)      (10**-50 SI)
   || (z)     0.802673D+04      0.693447D+02      0.257366D+02
   _|_(z)     0.256817D+04      0.221870D+02      0.823448D+01
   x         -0.756483D+04     -0.653542D+02     -0.242556D+02
   y         -0.351651D+03     -0.303799D+01     -0.112752D+01
   z          0.401336D+05      0.346723D+03      0.128683D+03
   ||         0.816838D+04      0.705684D+02      0.261908D+02
   xxx        0.499647D+03      0.431656D+01      0.160205D+01
   yxx        0.182472D+02      0.157641D+00      0.585070D-01
   zxx        0.724513D+02      0.625922D+00      0.232305D+00
   xyx        0.180562D+02      0.155992D+00      0.578949D-01
   yyx        0.542772D+02      0.468913D+00      0.174032D+00
   zyx        0.608987D+01      0.526118D-01      0.195263D-01
   xyy        0.583845D+02      0.504396D+00      0.187202D+00
   yyy        0.769287D+01      0.664604D-01      0.246661D-01
   zyy       -0.582731D+02     -0.503434D+00     -0.186845D+00
   xzx        0.385113D+03      0.332708D+01      0.123481D+01
   yzx        0.202100D+02      0.174599D+00      0.648007D-01
   zzx       -0.298826D+04     -0.258163D+02     -0.958145D+01
   xzy        0.202100D+02      0.174599D+00      0.648007D-01
   yzy       -0.487123D+02     -0.420836D+00     -0.156189D+00
   zzy       -0.138909D+03     -0.120007D+01     -0.445393D+00
   xzz       -0.325418D+04     -0.281136D+02     -0.104341D+02
   yzz       -0.151270D+03     -0.130686D+01     -0.485028D+00
   zzz        0.131489D+05      0.113596D+03      0.421601D+02

 ----------------------------------------------------------------------
 Unable to Open any file for archive entry.
 1\1\GINC-NQTCM05\SP\RCAM-B3LYP\Gen\C18H12O3\NQTCM\26-Jul-2022\0\\#p CA
 M-B3LYP/gen gfinput scf=maxcycle=200 Polar=(DCSHG) CPHF=RdFreq scrf=(i
 efpcm,read,solvent=Chloroform)\\Primeira Hiperpolarizabilidade\\0,1\C,
 0,0.4036,5.5174,0.\C,0,1.71245,5.02526,0.\C,0,1.94903,3.64878,0.\C,0,0
 .87705,2.75457,0.\C,0,-0.4386,3.25363,0.\C,0,-0.67404,4.63208,0.\C,0,-
 1.56097,2.30339,0.\C,0,-1.26837,0.84792,0.\C,0,0.,0.32371,0.\C,0,1.145
 34,1.28041,0.\C,0,0.35005,-1.08397,0.\C,0,-0.49041,-2.14818,0.\C,0,-0.
 0927,-3.55722,0.\C,0,-1.10554,-4.5373,0.\C,0,-0.79731,-5.89649,0.\C,0,
 0.5362,-6.31031,0.\C,0,1.24869,-3.99461,0.\C,0,1.55596,-5.35151,0.\O,0
 ,-2.3764,0.09322,0.\O,0,-2.75118,2.6393,0.\O,0,2.30583,0.87358,0.\H,0,
 0.22498,6.58806,0.\H,0,2.5505,5.71544,0.\H,0,-1.69782,4.99037,0.\H,0,2
 .95802,3.25172,0.\H,0,1.42325,-1.24806,0.\H,0,-1.56093,-1.97463,0.\H,0
 ,2.05675,-3.27003,0.\H,0,2.59573,-5.666,0.\H,0,0.78149,-7.36825,0.\H,0
 ,-2.14509,-4.21959,0.\H,0,-1.5971,-6.63147,0.\H,0,-3.11837,0.73833,0.\
 \Version=EM64L-G16RevC.01\State=1-A'\HF=-918.3831546\RMSD=4.544e-09\Di
 pole=-0.0486201,1.0459322,0.\Polar=320.4142815,-25.0249448,513.1004591
 ,0.,0.,129.2551864\HyperPolar=506.1323783,679.5260684,-3422.0473345,11
 169.2195189,0.,0.,0.,68.5128485,-51.6575546,0.\Quadrupole=-7.4886497,1
 9.0092464,-11.5205967,5.6148044,0.,0.\PG=CS [SG(C18H12O3)]\\@
 The archive entry for this job was punched.


 IF THE FACTS DO NOT CONFORM TO THE THEORY, THEY MUST BE DISPOSED OF.
 Job cpu time:       0 days  4 hours 33 minutes 57.8 seconds.
 Elapsed time:       0 days  1 hours  9 minutes  1.3 seconds.
 File lengths (MBytes):  RWF=    795 Int=      0 D2E=      0 Chk=     15 Scr=      1
 Normal termination of Gaussian 16 at Tue Jul 26 22:10:12 2022.
